! Sonnet Data File
! From: em Version : 19.52.2025
! From Project: CPW
! Data is De-embedded 
! Data File Written: 02/24/2026 12:47:39
!< HDATE 02/24/2026 12:38:38
!< MDATE 02/24/2026 12:38:38
!< PARAMS
!< Lk = 0.6000000000000001
!< END PARAMS
# GHZ S MA R 50.00000
0.100000000000000 0.0043074169989 88.168526060265 0.9999894482898 -1.848421570951 0.9999894482900 -1.848421570978 0.0043074169983 88.168526074689
0.102000000000000 0.0043935880697 88.131595347331 0.9999890491142 -1.885392460309 0.9999890491142 -1.885392460309 0.0043935880365 88.131592670724
0.104000000000000 0.0044797571571 88.094662534481 0.9999886425008 -1.922363319486 0.9999886425008 -1.922363319486 0.0044797570859 88.094657228698
0.106000000000000 0.0045659242234 88.057727733934 0.9999882284560 -1.959334148257 0.9999882284560 -1.959334148257 0.0045659241144 88.057719935914
0.108000000000000 0.0046520892318 88.020791062895 0.9999878069803 -1.996304946071 0.9999878069803 -1.996304946071 0.0046520890854 88.020780901725
0.110000000000000 0.0047382521455 87.983852630111 0.9999873780746 -2.033275712379 0.9999873780746 -2.033275712379 0.0047382519618 87.983840227547
0.112000000000000 0.0048244129274 87.946912536516 0.9999869417397 -2.070246446631 0.9999869417397 -2.070246446631 0.0048244127068 87.946898007569
0.114000000000000 0.0049105715407 87.909970876026 0.9999864979763 -2.107217148278 0.9999864979763 -2.107217148278 0.0049105712834 87.909954329384
0.116000000000000 0.0049967279485 87.873027736057 0.9999860467854 -2.144187816768 0.9999860467854 -2.144187816768 0.0049967276549 87.873009274569
0.118000000000000 0.0050828821139 87.836083198152 0.9999855881676 -2.181158451554 0.9999855881676 -2.181158451554 0.0050828817843 87.836062919184
0.120000000000000 0.0051690340001 87.799137338391 0.9999851221238 -2.218129052086 0.9999851221238 -2.218129052086 0.0051690336346 87.799115334225
0.122000000000000 0.0052551835700 87.762190227925 0.9999846486549 -2.255099617814 0.9999846486549 -2.255099617814 0.0052551831692 87.762166586069
0.124000000000000 0.0053413307870 87.725241933293 0.9999841677618 -2.292070148189 0.9999841677618 -2.292070148189 0.0053413303509 87.725216736807
0.126000000000000 0.0054274756139 87.688292516842 0.9999836794452 -2.329040642663 0.9999836794452 -2.329040642663 0.0054274751430 87.688265844612
0.128000000000000 0.0055136180140 87.651342037038 0.9999831837062 -2.366011100685 0.9999831837062 -2.366011100685 0.0055136175086 87.651313964040
0.130000000000000 0.0055997579505 87.614390548766 0.9999826805455 -2.402981521705 0.9999826805455 -2.402981521705 0.0055997574107 87.614361146314
0.132000000000000 0.0056858953863 87.577438103583 0.9999821699641 -2.439951905177 0.9999821699641 -2.439951905177 0.0056858948126 87.577407439550
0.134000000000000 0.0057720302846 87.540484750018 0.9999816519629 -2.476922250550 0.9999816519629 -2.476922250550 0.0057720296772 87.540452889021
0.136000000000000 0.0058581626085 87.503530533721 0.9999811265428 -2.513892557276 0.9999811265428 -2.513892557276 0.0058581619678 87.503497537355
0.138000000000000 0.0059442923212 87.466575497738 0.9999805937049 -2.550862824805 0.9999805937049 -2.550862824805 0.0059442916475 87.466541424708
0.140000000000000 0.0060304193858 87.429619682653 0.9999800534499 -2.587833052590 0.9999800534499 -2.587833052590 0.0060304186793 87.429584588977
0.142000000000000 0.0061165437653 87.392663126798 0.9999795057790 -2.624803240081 0.9999795057790 -2.624803240081 0.0061165430264 87.392627065933
0.144000000000000 0.0062026654230 87.355705866363 0.9999789506931 -2.661773386730 0.9999789506931 -2.661773386730 0.0062026646520 87.355668889375
0.146000000000000 0.0062887843219 87.318747935608 0.9999783881931 -2.698743491988 0.9999783881931 -2.698743491988 0.0062887835191 87.318710091260
0.148000000000000 0.0063749004252 87.281789366908 0.9999778182802 -2.735713555307 0.9999778182802 -2.735713555307 0.0063748995909 87.281750701846
0.150000000000000 0.0064610136959 87.244830190976 0.9999772409553 -2.772683576139 0.9999772409553 -2.772683576139 0.0064610128305 87.244790749778
0.152000000000000 0.0065471240973 87.207870436886 0.9999766562194 -2.809653553935 0.9999766562194 -2.809653553935 0.0065471232010 87.207830262216
0.154000000000000 0.0066332315924 87.170910132234 0.9999760640735 -2.846623488147 0.9999760640735 -2.846623488147 0.0066332306655 87.170869264919
0.156000000000000 0.0067193361444 87.133949303196 0.9999754645189 -2.883593378227 0.9999754645189 -2.883593378227 0.0067193351873 87.133907782359
0.158000000000000 0.0068054377164 87.096987974666 0.9999748575564 -2.920563223627 0.9999748575564 -2.920563223627 0.0068054367294 87.096945837756
0.160000000000000 0.0068915362716 87.060026170285 0.9999742431872 -2.957533023799 0.9999742431872 -2.957533023799 0.0068915352550 87.059983453203
0.162000000000000 0.0069776317730 87.023063912547 0.9999736214125 -2.994502778195 0.9999736214125 -2.994502778195 0.0069776307271 87.023020649703
0.164000000000000 0.0070637241838 86.986101222867 0.9999729922332 -3.031472486267 0.9999729922332 -3.031472486267 0.0070637231090 86.986057447268
0.166000000000000 0.0071498134672 86.949138121627 0.9999723556505 -3.068442147468 0.9999723556505 -3.068442147468 0.0071498123638 86.949093864940
0.168000000000000 0.0072358995863 86.912174628273 0.9999717116655 -3.105411761250 0.9999717116655 -3.105411761250 0.0072358984546 86.912129920881
0.170000000000000 0.0073219825043 86.875210761335 0.9999710602795 -3.142381327066 0.9999710602795 -3.142381327066 0.0073219813446 86.875165632399
0.172000000000000 0.0074080621842 86.838246538497 0.9999704014934 -3.179350844368 0.9999704014934 -3.179350844368 0.0074080609968 86.838201016028
0.174000000000000 0.0074941385892 86.801281976638 0.9999697353086 -3.216320312609 0.9999697353086 -3.216320312609 0.0074941373745 86.801236087547
0.176000000000000 0.0075802116825 86.764317091898 0.9999690617262 -3.253289731242 0.9999690617262 -3.253289731242 0.0075802104409 86.764270862031
0.178000000000000 0.0076662814272 86.727351899693 0.9999683807473 -3.290259099719 0.9999683807473 -3.290259099719 0.0076662801589 86.727305353891
0.180000000000000 0.0077523477865 86.690386414768 0.9999676923732 -3.327228417493 0.9999676923732 -3.327228417493 0.0077523464918 86.690339576910
0.182000000000000 0.0078384107235 86.653420651231 0.9999669966051 -3.364197684018 0.9999669966051 -3.364197684018 0.0078384094028 86.653373544284
0.184000000000000 0.0079244702014 86.616454622598 0.9999662934443 -3.401166898746 0.9999662934443 -3.401166898746 0.0079244688550 86.616407268646
0.186000000000000 0.0080105261833 86.579488341804 0.9999655828918 -3.438136061132 0.9999655828918 -3.438136061132 0.0080105248115 86.579440762095
0.188000000000000 0.0080965786324 86.542521821258 0.9999648649492 -3.475105170628 0.9999648649492 -3.475105170628 0.0080965772356 86.542474036228
0.190000000000000 0.0081826275118 86.505555072849 0.9999641396175 -3.512074226687 0.9999641396175 -3.512074226687 0.0081826260903 86.505507102173
0.192000000000000 0.0082686727847 86.468588107992 0.9999634068980 -3.549043228763 0.9999634068980 -3.549043228763 0.0082686713389 86.468539970603
0.194000000000000 0.0083547144143 86.431620937633 0.9999626667921 -3.586012176310 0.9999626667921 -3.586012176310 0.0083547129444 86.431572651768
0.196000000000000 0.0084407523637 86.394653572293 0.9999619193011 -3.622981068781 0.9999619193011 -3.622981068781 0.0084407508701 86.394605155508
0.198000000000000 0.0085267865961 86.357686022066 0.9999611644262 -3.659949905632 0.9999611644262 -3.659949905632 0.0085267850791 86.357637491265
0.200000000000000 0.0086128170747 86.320718296677 0.9999604021689 -3.696918686314 0.9999604021689 -3.696918686314 0.0086128155346 86.320669668142
0.202000000000000 0.0086988437625 86.283750405458 0.9999596325304 -3.733887410282 0.9999596325304 -3.733887410282 0.0086988421998 86.283701694878
0.204000000000000 0.0087848666229 86.246782357396 0.9999588555120 -3.770856076991 0.9999588555120 -3.770856076991 0.0087848650377 86.246733579884
0.206000000000000 0.0088708856189 86.209814161137 0.9999580711153 -3.807824685895 0.9999580711153 -3.807824685895 0.0088708840117 86.209765331259
0.208000000000000 0.0089569007138 86.172845825000 0.9999572793414 -3.844793236448 0.9999572793414 -3.844793236448 0.0089568990849 86.172796956796
0.210000000000000 0.0090429118707 86.135877357015 0.9999564801919 -3.881761728103 0.9999564801919 -3.881761728103 0.0090429102204 86.135828464011
0.212000000000000 0.0091289190528 86.098908764899 0.9999556736681 -3.918730160318 0.9999556736681 -3.918730160318 0.0091289173814 86.098859860137
0.214000000000000 0.0092149222232 86.061940056120 0.9999548597715 -3.955698532545 0.9999548597715 -3.955698532545 0.0092149205312 86.061891152164
0.216000000000000 0.0093009213453 86.024971237852 0.9999540385034 -3.992666844239 0.9999540385034 -3.992666844239 0.0093009196328 86.024922346824
0.218000000000000 0.0093869163820 85.988002317031 0.9999532098653 -4.029635094856 0.9999532098653 -4.029635094856 0.0093869146495 85.987953450614
0.220000000000000 0.0094729072967 85.951033300350 0.9999523738586 -4.066603283850 0.9999523738586 -4.066603283850 0.0094729055445 85.950984469811
0.222000000000000 0.0095588940525 85.914064194268 0.9999515304849 -4.103571410676 0.9999515304849 -4.103571410676 0.0095588922810 85.914015410470
0.224000000000000 0.0096448766127 85.877095005037 0.9999506797456 -4.140539474791 0.9999506797456 -4.140539474791 0.0096448748220 85.877046278448
0.226000000000000 0.0097308549403 85.840125738680 0.9999498216421 -4.177507475648 0.9999498216421 -4.177507475648 0.0097308531310 85.840077079411
0.228000000000000 0.0098168289986 85.803156401032 0.9999489561760 -4.214475412704 0.9999489561760 -4.214475412704 0.0098168271709 85.803107818816
0.230000000000000 0.0099027987508 85.766186997731 0.9999480833488 -4.251443285414 0.9999480833488 -4.251443285414 0.0099027969051 85.766138501959
0.232000000000000 0.0099887641602 85.729217534234 0.9999472031620 -4.288411093234 0.9999472031620 -4.288411093234 0.0099887622967 85.729169133962
0.234000000000000 0.0100747251898 85.692248015818 0.9999463156172 -4.325378835620 0.9999463156172 -4.325378835620 0.0100747233089 85.692199719789
0.236000000000000 0.0101606818029 85.655278447595 0.9999454207159 -4.362346512027 0.9999454207159 -4.362346512027 0.0101606799050 85.655230264223
0.238000000000000 0.0102466339627 85.618308834518 0.9999445184596 -4.399314121911 0.9999445184596 -4.399314121911 0.0102466320481 85.618260771922
0.240000000000000 0.0103325816324 85.581339181374 0.9999436088499 -4.436281664729 0.9999436088499 -4.436281664729 0.0103325797015 85.581291247392
0.242000000000000 0.0104185247752 85.544369492813 0.9999426918885 -4.473249139937 0.9999426918885 -4.473249139937 0.0104185228283 85.544321694992
0.244000000000000 0.0105044633544 85.507399773336 0.9999417675769 -4.510216546992 0.9999417675769 -4.510216546992 0.0105044613918 85.507352118959
0.246000000000000 0.0105903973332 85.470430027317 0.9999408359167 -4.547183885350 0.9999408359167 -4.547183885350 0.0105903953551 85.470382523394
0.248000000000000 0.0106763266747 85.433460258990 0.9999398969095 -4.584151154467 0.9999398969095 -4.584151154467 0.0106763246816 85.433412912286
0.250000000000000 0.0107622513421 85.396490472464 0.9999389505571 -4.621118353800 0.9999389505571 -4.621118353800 0.0107622493344 85.396443289501
0.252000000000000 0.0108481712988 85.359520671732 0.9999379968609 -4.658085482807 0.9999379968609 -4.658085482807 0.0108481692767 85.359473658794
0.254000000000000 0.0109340865080 85.322550860665 0.9999370358228 -4.695052540944 0.9999370358228 -4.695052540944 0.0109340844718 85.322504023811
0.256000000000000 0.0110199969328 85.285581043033 0.9999360674443 -4.732019527668 0.9999360674443 -4.732019527668 0.0110199948829 85.285534388089
0.258000000000000 0.0111059025364 85.248611222485 0.9999350917272 -4.768986442437 0.9999350917272 -4.768986442437 0.0111059004732 85.248564755077
0.260000000000000 0.0111918032822 85.211641402583 0.9999341086731 -4.805953284708 0.9999341086731 -4.805953284708 0.0111918012059 85.211595128120
0.262000000000000 0.0112776991334 85.174671586770 0.9999331182837 -4.842920053939 0.9999331182837 -4.842920053939 0.0112776970444 85.174625510468
0.264000000000000 0.0113635900532 85.137701778414 0.9999321205608 -4.879886749587 0.9999321205608 -4.879886749587 0.0113635879518 85.137655905291
0.266000000000000 0.0114494760047 85.100731980785 0.9999311155061 -4.916853371110 0.9999311155061 -4.916853371110 0.0114494738913 85.100686315673
0.268000000000000 0.0115353569514 85.063762197056 0.9999301031214 -4.953819917967 0.9999301031214 -4.953819917967 0.0115353548262 85.063716744602
0.270000000000000 0.0116212328564 85.026792430321 0.9999290834083 -4.990786389614 0.9999290834083 -4.990786389614 0.0116212307198 85.026747195003
0.272000000000000 0.0117071036829 84.989822683601 0.9999280563687 -5.027752785511 0.9999280563687 -5.027752785511 0.0117071015353 84.989777669722
0.274000000000000 0.0117929693943 84.952852959822 0.9999270220044 -5.064719105115 0.9999270220044 -5.064719105115 0.0117929672359 84.952808171523
0.276000000000000 0.0118788299537 84.915883261850 0.9999259803171 -5.101685347885 0.9999259803171 -5.101685347885 0.0118788277849 84.915838703105
0.278000000000000 0.0119646853244 84.878913592469 0.9999249313086 -5.138651513281 0.9999249313086 -5.138651513281 0.0119646831455 84.878869267094
0.280000000000000 0.0120505354698 84.841943954385 0.9999238749809 -5.175617600759 0.9999238749809 -5.175617600759 0.0120505332811 84.841899866068
0.282000000000000 0.0121363803529 84.804974350259 0.9999228113356 -5.212583609780 0.9999228113356 -5.212583609780 0.0121363781548 84.804930502513
0.284000000000000 0.0122222199372 84.768004782661 0.9999217403747 -5.249549539803 0.9999217403747 -5.249549539803 0.0122222177300 84.767961178880
0.286000000000000 0.0123080541858 84.731035254114 0.9999206620999 -5.286515390286 0.9999206620999 -5.286515390286 0.0123080519698 84.730991897544
0.288000000000000 0.0123938830621 84.694065767076 0.9999195765132 -5.323481160689 0.9999195765132 -5.323481160689 0.0123938808376 84.694022660830
0.290000000000000 0.0124797065292 84.657096323943 0.9999184836165 -5.360446850471 0.9999184836165 -5.360446850471 0.0124797042966 84.657053471009
0.292000000000000 0.0125655245506 84.620126927058 0.9999173834116 -5.397412459092 0.9999173834116 -5.397412459092 0.0125655223102 84.620084330298
0.294000000000000 0.0126513370894 84.583157578703 0.9999162759004 -5.434377986012 0.9999162759004 -5.434377986012 0.0126513348415 84.583115240856
0.296000000000000 0.0127371441089 84.546188281114 0.9999151610848 -5.471343430690 0.9999151610848 -5.471343430690 0.0127371418538 84.546146204800
0.298000000000000 0.0128229455725 84.509219036472 0.9999140389669 -5.508308792587 0.9999140389669 -5.508308792587 0.0128229433105 84.509177224201
0.300000000000000 0.0129087414433 84.472249846913 0.9999129095484 -5.545274071162 0.9999129095484 -5.545274071162 0.0129087391749 84.472208301082
0.302000000000000 0.0129945316848 84.435280714512 0.9999117728314 -5.582239265877 0.9999117728314 -5.582239265877 0.0129945294101 84.435239437412
0.304000000000000 0.0130803162601 84.398311641321 0.9999106288179 -5.619204376191 0.9999106288179 -5.619204376191 0.0130803139795 84.398270635127
0.306000000000000 0.0131660951327 84.361342629321 0.9999094775098 -5.656169401565 0.9999094775098 -5.656169401565 0.0131660928464 84.361301896122
0.308000000000000 0.0132518682656 84.324373680468 0.9999083189090 -5.693134341460 0.9999083189090 -5.693134341460 0.0132518659741 84.324333222242
0.310000000000000 0.0133376356224 84.287404796663 0.9999071530177 -5.730099195337 0.9999071530177 -5.730099195337 0.0133376333259 84.287364615307
0.312000000000000 0.0134233971662 84.250435979781 0.9999059798377 -5.767063962656 0.9999059798377 -5.767063962656 0.0134233948651 84.250396077079
0.314000000000000 0.0135091528605 84.213467231646 0.9999047993712 -5.804028642880 0.9999047993712 -5.804028642880 0.0135091505550 84.213427609308
0.316000000000000 0.0135949026684 84.176498554050 0.9999036116202 -5.840993235469 0.9999036116202 -5.840993235469 0.0135949003589 84.176459213687
0.318000000000000 0.0136806465533 84.139529948742 0.9999024165866 -5.877957739886 0.9999024165866 -5.877957739886 0.0136806442401 84.139490891889
0.320000000000000 0.0137663844785 84.102561417448 0.9999012142727 -5.914922155591 0.9999012142727 -5.914922155591 0.0137663821619 84.102522645547
0.322000000000000 0.0138521164074 84.065592961840 0.9999000046804 -5.951886482046 0.9999000046804 -5.951886482046 0.0138521140877 84.065554476259
0.324000000000000 0.0139378423032 84.028624583576 0.9998987878119 -5.988850718714 0.9998987878119 -5.988850718714 0.0139378399807 84.028586385600
0.326000000000000 0.0140235621293 83.991656284265 0.9998975636691 -6.025814865057 0.9998975636691 -6.025814865057 0.0140235598043 83.991618375112
0.328000000000000 0.0141092758490 83.954688065501 0.9998963322544 -6.062778920537 0.9998963322544 -6.062778920537 0.0141092735218 83.954650446302
0.330000000000000 0.0141949834256 83.917719928830 0.9998950935697 -6.099742884616 0.9998950935697 -6.099742884616 0.0141949810966 83.917682600656
0.332000000000000 0.0142806848225 83.880751875789 0.9998938476172 -6.136706756757 0.9998938476172 -6.136706756757 0.0142806824919 83.880714839625
0.334000000000000 0.0143663800030 83.843783907863 0.9998925943990 -6.173670536424 0.9998925943990 -6.173670536424 0.0143663776712 83.843747164642
0.336000000000000 0.0144520689305 83.806816026528 0.9998913339173 -6.210634223078 0.9998913339173 -6.210634223078 0.0144520665977 83.806779577113
0.338000000000000 0.0145377515683 83.769848233227 0.9998900661744 -6.247597816183 0.9998900661744 -6.247597816183 0.0145377492348 83.769812078406
0.340000000000000 0.0146234278797 83.732880529368 0.9998887911722 -6.284561315202 0.9998887911722 -6.284561315202 0.0146234255458 83.732844669881
0.342000000000000 0.0147090978281 83.695912916352 0.9998875089131 -6.321524719599 0.9998875089131 -6.321524719599 0.0147090954941 83.695877352865
0.344000000000000 0.0147947613768 83.658945395536 0.9998862193993 -6.358488028838 0.9998862193993 -6.358488028838 0.0147947590431 83.658910128664
0.346000000000000 0.0148804184892 83.621977968265 0.9998849226330 -6.395451242382 0.9998849226330 -6.395451242382 0.0148804161560 83.621942998567
0.348000000000000 0.0149660691287 83.585010635863 0.9998836186163 -6.432414359694 0.9998836186163 -6.432414359694 0.0149660667963 83.584975963830
0.350000000000000 0.0150517132586 83.548043399619 0.9998823073517 -6.469377380240 0.9998823073517 -6.469377380240 0.0150517109273 83.548009025697
0.352000000000000 0.0151373508423 83.511076260809 0.9998809888412 -6.506340303484 0.9998809888412 -6.506340303484 0.0151373485124 83.511042185389
0.354000000000000 0.0152229818432 83.474109220690 0.9998796630871 -6.543303128890 0.9998796630871 -6.543303128890 0.0152229795150 83.474075444112
0.356000000000000 0.0153086062246 83.437142280491 0.9998783300919 -6.580265855922 0.9998783300919 -6.580265855922 0.0153086038983 83.437108803039
0.358000000000000 0.0153942239499 83.400175441425 0.9998769898576 -6.617228484045 0.9998769898576 -6.617228484045 0.0153942216259 83.400142263340
0.360000000000000 0.0154798349825 83.363208704681 0.9998756423867 -6.654191012726 0.9998756423867 -6.654191012726 0.0154798326610 83.363175826155
0.362000000000000 0.0155654392857 83.326242071442 0.9998742876815 -6.691153441427 0.9998742876815 -6.691153441427 0.0155654369671 83.326209492620
0.364000000000000 0.0156510368231 83.289275542855 0.9998729257442 -6.728115769616 0.9998729257442 -6.728115769616 0.0156510345076 83.289243263835
0.366000000000000 0.0157366275579 83.252309120060 0.9998715565773 -6.765077996756 0.9998715565773 -6.765077996756 0.0157366252458 83.252277140899
0.368000000000000 0.0158222114535 83.215342804177 0.9998701801830 -6.802040122315 0.9998701801830 -6.802040122315 0.0158222091451 83.215311124888
0.370000000000000 0.0159077884734 83.178376596311 0.9998687965638 -6.839002145758 0.9998687965638 -6.839002145758 0.0159077861689 83.178345216863
0.372000000000000 0.0159933585809 83.141410497543 0.9998674057220 -6.875964066551 0.9998674057220 -6.875964066551 0.0159933562807 83.141379417870
0.374000000000000 0.0160789217395 83.104444508951 0.9998660076600 -6.912925884160 0.9998660076600 -6.912925884160 0.0160789194438 83.104413728945
0.376000000000000 0.0161644779125 83.067478631587 0.9998646023801 -6.949887598052 0.9998646023801 -6.949887598052 0.0161644756216 83.067448151095
0.378000000000000 0.0162500270635 83.030512866488 0.9998631898849 -6.986849207692 0.9998631898849 -6.986849207692 0.0162500247776 83.030482685328
0.380000000000000 0.0163355691557 82.993547214681 0.9998617701767 -7.023810712549 0.9998617701767 -7.023810712549 0.0163355668751 82.993517332633
0.382000000000000 0.0164211041526 82.956581677179 0.9998603432580 -7.060772112088 0.9998603432580 -7.060772112088 0.0164211018776 82.956552093986
0.384000000000000 0.0165066320177 82.919616254977 0.9998589091312 -7.097733405778 0.9998589091312 -7.097733405778 0.0165066297486 82.919586970344
0.386000000000000 0.0165921527143 82.882650949053 0.9998574677988 -7.134694593085 0.9998574677988 -7.134694593085 0.0165921504513 82.882621962660
0.388000000000000 0.0166776662059 82.845685760381 0.9998560192632 -7.171655673476 0.9998560192632 -7.171655673476 0.0166776639494 82.845657071871
0.390000000000000 0.0167631724560 82.808720689921 0.9998545635269 -7.208616646420 0.9998545635269 -7.208616646420 0.0167631702061 82.808692298901
0.392000000000000 0.0168486714279 82.771755738612 0.9998531005925 -7.245577511384 0.9998531005925 -7.245577511384 0.0168486691850 82.771727644663
0.394000000000000 0.0169341630851 82.734790907386 0.9998516304623 -7.282538267837 0.9998516304623 -7.282538267837 0.0169341608494 82.734763110061
0.396000000000000 0.0170196473911 82.697826197165 0.9998501531391 -7.319498915246 0.9998501531391 -7.319498915246 0.0170196451628 82.697798695982
0.398000000000000 0.0171051243094 82.660861608861 0.9998486686252 -7.356459453080 0.9998486686252 -7.356459453080 0.0171051220888 82.660834403306
0.400000000000000 0.0171905938032 82.623897143364 0.9998471769232 -7.393419880808 0.9998471769232 -7.393419880808 0.0171905915906 82.623870232906
0.402000000000000 0.0172760558362 82.586932801561 0.9998456780357 -7.430380197898 0.9998456780357 -7.430380197898 0.0172760536318 82.586906185635
0.404000000000000 0.0173615103718 82.549968584329 0.9998441719652 -7.467340403820 0.9998441719652 -7.467340403820 0.0173615081759 82.549942262349
0.406000000000000 0.0174469573735 82.513004492531 0.9998426587144 -7.504300498043 0.9998426587144 -7.504300498043 0.0174469551863 82.512978463881
0.408000000000000 0.0175323968046 82.476040527026 0.9998411382857 -7.541260480035 0.9998411382857 -7.541260480035 0.0175323946264 82.476014791064
0.410000000000000 0.0176178286288 82.439076688654 0.9998396106819 -7.578220349268 0.9998396106819 -7.578220349268 0.0176178264598 82.439051244715
0.412000000000000 0.0177032528094 82.402112978251 0.9998380759055 -7.615180105209 0.9998380759055 -7.615180105209 0.0177032506499 82.402087825647
0.414000000000000 0.0177886693100 82.365149396640 0.9998365339592 -7.652139747330 0.9998365339592 -7.652139747330 0.0177886671602 82.365124534662
0.416000000000000 0.0178740780940 82.328185944639 0.9998349848455 -7.689099275101 0.9998349848455 -7.689099275101 0.0178740759542 82.328161372553
0.418000000000000 0.0179594791250 82.291222623056 0.9998334285672 -7.726058687992 0.9998334285672 -7.726058687992 0.0179594769954 82.291198340107
0.420000000000000 0.0180448723664 82.254259432687 0.9998318651269 -7.763017985473 0.9998318651269 -7.763017985473 0.0180448702472 82.254235438098
0.422000000000000 0.0181302577818 82.217296374320 0.9998302945273 -7.799977167016 0.9998302945273 -7.799977167016 0.0181302556733 82.217272667295
0.424000000000000 0.0182156353345 82.180333448739 0.9998287167710 -7.836936232091 0.9998287167710 -7.836936232091 0.0182156332369 82.180310028463
0.426000000000000 0.0183010049882 82.143370656715 0.9998271318609 -7.873895180169 0.9998271318609 -7.873895180169 0.0183010029018 82.143347522349
0.428000000000000 0.0183863667064 82.106407999015 0.9998255397994 -7.910854010722 0.9998255397994 -7.910854010722 0.0183863646313 82.106385149707
0.430000000000000 0.0184717204525 82.069445476397 0.9998239405895 -7.947812723222 0.9998239405895 -7.947812723222 0.0184717183891 82.069422911270
0.432000000000000 0.0185570661901 82.032483089606 0.9998223342338 -7.984771317139 0.9998223342338 -7.984771317139 0.0185570641385 82.032460807770
0.434000000000000 0.0186424038827 81.995520839385 0.9998207207351 -8.021729791947 0.9998207207351 -8.021729791947 0.0186424018432 81.995498839932
0.436000000000000 0.0187277334938 81.958558726469 0.9998191000961 -8.058688147118 0.9998191000961 -8.058688147118 0.0187277314667 81.958537008475
0.438000000000000 0.0188130549870 81.921596751589 0.9998174723196 -8.095646382123 0.9998174723196 -8.095646382123 0.0188130529724 81.921575314108
0.440000000000000 0.0188983683258 81.884634915464 0.9998158374084 -8.132604496436 0.9998158374084 -8.132604496436 0.0188983663240 81.884613757541
0.442000000000000 0.0189836734738 81.847673218807 0.9998141953652 -8.169562489529 0.9998141953652 -8.169562489529 0.0189836714849 81.847652339468
0.444000000000000 0.0190689703945 81.810711662327 0.9998125461930 -8.206520360875 0.9998125461930 -8.206520360875 0.0190689684188 81.810691060580
0.446000000000000 0.0191542590514 81.773750246720 0.9998108898944 -8.243478109948 0.9998108898944 -8.243478109948 0.0191542570891 81.773729921568
0.448000000000000 0.0192395394081 81.736788972689 0.9998092264724 -8.280435736221 0.9998092264724 -8.280435736221 0.0192395374594 81.736768923109
0.450000000000000 0.0193248114281 81.699827840917 0.9998075559297 -8.317393239167 0.9998075559297 -8.317393239167 0.0193248094933 81.699808065880
0.452000000000000 0.0194100750751 81.662866852086 0.9998058782692 -8.354350618261 0.9998058782692 -8.354350618261 0.0194100731544 81.662847350548
0.454000000000000 0.0194953303125 81.625906006874 0.9998041934938 -8.391307872976 0.9998041934938 -8.391307872976 0.0194953284061 81.625886777778
0.456000000000000 0.0195805771040 81.588945305953 0.9998025016064 -8.428265002788 0.9998025016064 -8.428265002788 0.0195805752121 81.588926348228
0.458000000000000 0.0196658154132 81.551984749990 0.9998008026098 -8.465222007170 0.9998008026098 -8.465222007170 0.0196658135359 81.551966062552
0.460000000000000 0.0197510452036 81.515024339640 0.9997990965070 -8.502178885597 0.9997990965070 -8.502178885597 0.0197510433412 81.515005921395
0.462000000000000 0.0198362664387 81.478064075558 0.9997973833008 -8.539135637544 0.9997973833008 -8.539135637544 0.0198362645914 81.478045925401
0.464000000000000 0.0199214790823 81.441103958396 0.9997956629942 -8.576092262486 0.9997956629942 -8.576092262486 0.0199214772503 81.441086075212
0.466000000000000 0.0200066830978 81.404143988797 0.9997939355901 -8.613048759900 0.9997939355901 -8.613048759900 0.0200066812813 81.404126371457
0.468000000000000 0.0200918784489 81.367184167400 0.9997922010914 -8.650005129259 0.9997922010914 -8.650005129259 0.0200918766481 81.367166814766
0.470000000000000 0.0201770650992 81.330224494839 0.9997904595012 -8.686961370041 0.9997904595012 -8.686961370041 0.0201770633143 81.330207405762
0.472000000000000 0.0202622430123 81.293264971744 0.9997887108223 -8.723917481721 0.9997887108223 -8.723917481721 0.0202622412435 81.293248145066
0.474000000000000 0.0203474121519 81.256305598741 0.9997869550579 -8.760873463775 0.9997869550579 -8.760873463775 0.0203474103993 81.256289033292
0.476000000000000 0.0204325724814 81.219346376446 0.9997851922108 -8.797829315681 0.9997851922108 -8.797829315681 0.0204325707453 81.219330071052
0.478000000000000 0.0205177239646 81.182387305476 0.9997834222840 -8.834785036913 0.9997834222840 -8.834785036913 0.0205177222452 81.182371258952
0.480000000000000 0.0206028665651 81.145428386445 0.9997816452807 -8.871740626951 0.9997816452807 -8.871740626951 0.0206028648625 81.145412597595
0.482000000000000 0.0206880002465 81.108469619957 0.9997798612037 -8.908696085271 0.9997798612037 -8.908696085271 0.0206879985609 81.108454087580
0.484000000000000 0.0207731249724 81.071511006618 0.9997780700563 -8.945651411349 0.9997780700563 -8.945651411349 0.0207731233040 81.071495729499
0.486000000000000 0.0208582407065 81.034552547025 0.9997762718413 -8.982606604665 0.9997762718413 -8.982606604665 0.0208582390556 81.034537523947
0.488000000000000 0.0209433474125 80.997594241770 0.9997744665619 -9.019561664696 0.9997744665619 -9.019561664696 0.0209433457791 80.997579471507
0.490000000000000 0.0210284450539 80.960636091447 0.9997726542211 -9.056516590919 0.9997726542211 -9.056516590919 0.0210284434383 80.960621572767
0.492000000000000 0.0211135335945 80.923678096643 0.9997708348221 -9.093471382813 0.9997708348221 -9.093471382813 0.0211135319968 80.923663828304
0.494000000000000 0.0211986129979 80.886720257938 0.9997690083679 -9.130426039857 0.9997690083679 -9.130426039857 0.0211986114182 80.886706238693
0.496000000000000 0.0212836832277 80.849762575913 0.9997671748617 -9.167380561529 0.9997671748617 -9.167380561529 0.0212836816664 80.849748804509
0.498000000000000 0.0213687442477 80.812805051148 0.9997653343065 -9.204334947309 0.9997653343065 -9.204334947309 0.0213687427048 80.812791526324
0.500000000000000 0.0214537960215 80.775847684208 0.9997634867055 -9.241289196676 0.9997634867055 -9.241289196676 0.0214537944972 80.775834404698
0.502000000000000 0.0215388385128 80.738890475666 0.9997616320619 -9.278243309109 0.9997616320619 -9.278243309109 0.0215388370073 80.738877440198
0.504000000000000 0.0216238716853 80.701933426087 0.9997597703788 -9.315197284087 0.9997597703788 -9.315197284087 0.0216238701987 80.701920633385