! Sonnet Data File
! From: em Version : 19.52.2025
! From Project: CPW
! Data is De-embedded 
! Data File Written: 02/24/2026 12:47:39
!< HDATE 02/24/2026 12:38:38
!< MDATE 02/24/2026 12:38:38
!< PARAMS
!< Lk = 0.8
!< END PARAMS
# GHZ S MA R 50.00000
0.100000000000000 0.0049552009050 88.129189752804 0.9999864481680 -1.885542183227 0.9999864481682 -1.885542183218 0.0049552009054 88.129189763071
0.102000000000000 0.0050543209744 88.091515762854 0.9999859279069 -1.923255297764 0.9999859279069 -1.923255297764 0.0050543211048 88.091514102077
0.104000000000000 0.0051534386584 88.053839708409 0.9999853978152 -1.960968372335 0.9999853978152 -1.960968372335 0.0051534389123 88.053836477335
0.106000000000000 0.0052525539115 88.016161729581 0.9999848578937 -1.998681406416 0.9999848578937 -1.998681406416 0.0052525542872 88.016157004597
0.108000000000000 0.0053516666890 87.978481940751 0.9999843081437 -2.036394399267 0.9999843081437 -2.036394399267 0.0053516671850 87.978475793957
0.110000000000000 0.0054507769464 87.940800448006 0.9999837485661 -2.074107350146 0.9999837485661 -2.074107350146 0.0054507775611 87.940792947490
0.112000000000000 0.0055498846392 87.903117349873 0.9999831791619 -2.111820258314 0.9999831791619 -2.111820258314 0.0055498853709 87.903108560043
0.114000000000000 0.0056489897226 87.865432738002 0.9999825999324 -2.149533123029 0.9999825999324 -2.149533123029 0.0056489905699 87.865422719816
0.116000000000000 0.0057480921522 87.827746697764 0.9999820108786 -2.187245943551 0.9999820108786 -2.187245943551 0.0057480931134 87.827735508971
0.118000000000000 0.0058471918834 87.790059308756 0.9999814120016 -2.224958719140 0.9999814120016 -2.224958719140 0.0058471929569 87.790047004117
0.120000000000000 0.0059462888715 87.752370645285 0.9999808033026 -2.262671449056 0.9999808033026 -2.262671449056 0.0059462900559 87.752357276788
0.122000000000000 0.0060453830720 87.714680776847 0.9999801847827 -2.300384132557 0.9999801847827 -2.300384132557 0.0060453843657 87.714666393866
0.124000000000000 0.0061444744403 87.676989768457 0.9999795564432 -2.338096768905 0.9999795564432 -2.338096768905 0.0061444758418 87.676974417925
0.126000000000000 0.0062435629319 87.639297681060 0.9999789182852 -2.375809357358 0.9999789182852 -2.375809357358 0.0062435644397 87.639281407625
0.128000000000000 0.0063426485021 87.601604571756 0.9999782703100 -2.413521897179 0.9999782703100 -2.413521897179 0.0063426501146 87.601587417946
0.130000000000000 0.0064417311065 87.563910494235 0.9999776125187 -2.451234387626 0.9999776125187 -2.451234387626 0.0064417328222 87.563892500550
0.132000000000000 0.0065408107003 87.526215498916 0.9999769449127 -2.488946827959 0.9999769449127 -2.488946827959 0.0065408125178 87.526196703980
0.134000000000000 0.0066398872392 87.488519633241 0.9999762674931 -2.526659217439 0.9999762674931 -2.526659217439 0.0066398891568 87.488500073901
0.136000000000000 0.0067389606784 87.450822941901 0.9999755802614 -2.564371555327 0.9999755802614 -2.564371555327 0.0067389626948 87.450802653328
0.138000000000000 0.0068380309734 87.413125467004 0.9999748832187 -2.602083840884 0.9999748832187 -2.602083840884 0.0068380330871 87.413104482817
0.140000000000000 0.0069370980797 87.375427248296 0.9999741763664 -2.639796073369 0.9999741763664 -2.639796073369 0.0069371002892 87.375405600617
0.142000000000000 0.0070361619527 87.337728323293 0.9999734597059 -2.677508252043 0.9999734597059 -2.677508252043 0.0070361642565 87.337706042838
0.144000000000000 0.0071352225478 87.300028727464 0.9999727332384 -2.715220376168 0.9999727332384 -2.715220376168 0.0071352249445 87.300005843644
0.146000000000000 0.0072342798205 87.262328494364 0.9999719969654 -2.752932445004 0.9999719969654 -2.752932445004 0.0072342823087 87.262305035325
0.148000000000000 0.0073333337262 87.224627655744 0.9999712508882 -2.790644457813 0.9999712508882 -2.790644457813 0.0073333363044 87.224603648465
0.150000000000000 0.0074323842204 87.186926241694 0.9999704950083 -2.828356413856 0.9999704950083 -2.828356413856 0.0074323868872 87.186901712024
0.152000000000000 0.0075314312585 87.149224280751 0.9999697293270 -2.866068312393 0.9999697293270 -2.866068312393 0.0075314340124 87.149199253488
0.154000000000000 0.0076304747959 87.111521799982 0.9999689538459 -2.903780152686 0.9999689538459 -2.903780152686 0.0076304776356 87.111496298915
0.156000000000000 0.0077295147882 87.073818825101 0.9999681685663 -2.941491933998 0.9999681685663 -2.941491933998 0.0077295177122 87.073792873065
0.158000000000000 0.0078285511907 87.036115380539 0.9999673734897 -2.979203655589 0.9999673734897 -2.979203655589 0.0078285541977 87.036088999466
0.160000000000000 0.0079275839589 86.998411489528 0.9999665686176 -3.016915316722 0.9999665686176 -3.016915316722 0.0079275870475 86.998384700490
0.162000000000000 0.0080266130483 86.960707174172 0.9999657539515 -3.054626916657 0.9999657539515 -3.054626916657 0.0080266162171 86.960679997431
0.164000000000000 0.0081256384143 86.923002455542 0.9999649294930 -3.092338454658 0.9999649294930 -3.092338454658 0.0081256416619 86.922974910561
0.166000000000000 0.0082246600124 86.885297353678 0.9999640952435 -3.130049929986 0.9999640952435 -3.130049929986 0.0082246633375 86.885269459202
0.168000000000000 0.0083236777980 86.847591887727 0.9999632512047 -3.167761341903 0.9999632512047 -3.167761341903 0.0083236811992 86.847563661782
0.170000000000000 0.0084226917267 86.809886075923 0.9999623973781 -3.205472689672 0.9999623973781 -3.205472689672 0.0084226952027 86.809857535884
0.172000000000000 0.0085217017538 86.772179935712 0.9999615337653 -3.243183972555 0.9999615337653 -3.243183972555 0.0085217053032 86.772151098284
0.174000000000000 0.0086207078349 86.734473483724 0.9999606603678 -3.280895189814 0.9999606603678 -3.280895189814 0.0086207114564 86.734444365021
0.176000000000000 0.0087197099254 86.696766735879 0.9999597771874 -3.318606340713 0.9999597771874 -3.318606340713 0.0087197136177 86.696737351433
0.178000000000000 0.0088187079809 86.659059707390 0.9999588842257 -3.356317424514 0.9999588842257 -3.356317424514 0.0088187117426 86.659030072158
0.180000000000000 0.0089177019566 86.621352412823 0.9999579814843 -3.394028440480 0.9999579814843 -3.394028440480 0.0089177057865 86.621322541242
0.182000000000000 0.0090166918082 86.583644866118 0.9999570689649 -3.431739387875 0.9999570689649 -3.431739387875 0.0090166957050 86.583614772118
0.184000000000000 0.0091156774912 86.545937080636 0.9999561466692 -3.469450265960 0.9999561466692 -3.469450265960 0.0091156814535 86.545906777655
0.186000000000000 0.0092146589609 86.508229069180 0.9999552145988 -3.507161074001 0.9999552145988 -3.507161074001 0.0092146629876 86.508198570187
0.188000000000000 0.0093136361730 86.470520844027 0.9999542727556 -3.544871811259 0.9999542727556 -3.544871811259 0.0093136402626 86.470490161562
0.190000000000000 0.0094126090828 86.432812416969 0.9999533211413 -3.582582477000 0.9999533211413 -3.582582477000 0.0094126132342 86.432781563120
0.192000000000000 0.0095115776459 86.395103799316 0.9999523597576 -3.620293070485 0.9999523597576 -3.620293070485 0.0095115818578 86.395072785773
0.194000000000000 0.0096105418178 86.357395001924 0.9999513886063 -3.658003590980 0.9999513886063 -3.658003590980 0.0096105460889 86.357363839991
0.196000000000000 0.0097095015539 86.319686035255 0.9999504076892 -3.695714037749 0.9999504076892 -3.695714037749 0.0097095058831 86.319654735840
0.198000000000000 0.0098084568097 86.281976909328 0.9999494170081 -3.733424410054 0.9999494170081 -3.733424410054 0.0098084611957 86.281945482999
0.200000000000000 0.0099074075409 86.244267633821 0.9999484165648 -3.771134707162 0.9999484165648 -3.771134707162 0.0099074119824 86.244236090784
0.202000000000000 0.0100063537027 86.206558218017 0.9999474063612 -3.808844928335 0.9999474063612 -3.808844928335 0.0100063581986 86.206526568149
0.204000000000000 0.0101052952509 86.168848670867 0.9999463863991 -3.846555072838 0.9999463863991 -3.846555072838 0.0101052997999 86.168816923726
0.206000000000000 0.0102042321408 86.131139000995 0.9999453566805 -3.884265139938 0.9999453566805 -3.884265139938 0.0102042367417 86.131107165831
0.208000000000000 0.0103031643280 86.093429216709 0.9999443172072 -3.921975128897 0.9999443172072 -3.921975128897 0.0103031689796 86.093397302470
0.210000000000000 0.0104020917679 86.055719326024 0.9999432679811 -3.959685038981 0.9999432679811 -3.959685038981 0.0104020964691 86.055687341374
0.212000000000000 0.0105010144162 86.018009336656 0.9999422090041 -3.997394869456 0.9999422090041 -3.997394869456 0.0105010191658 86.017977289994
0.214000000000000 0.0105999322283 85.980299256066 0.9999411402782 -4.035104619586 0.9999411402782 -4.035104619586 0.0105999370251 85.980267155521
0.216000000000000 0.0106988451598 85.942589091462 0.9999400618054 -4.072814288636 0.9999400618054 -4.072814288636 0.0106988500026 85.942556944901
0.218000000000000 0.0107977531661 85.904878849783 0.9999389735877 -4.110523875873 0.9999389735877 -4.110523875873 0.0107977580538 85.904846664841
0.220000000000000 0.0108966562028 85.867168537757 0.9999378756270 -4.148233380562 0.9999378756270 -4.148233380562 0.0108966611343 85.867136321819
0.222000000000000 0.0109955542254 85.829458161869 0.9999367679253 -4.185942801970 0.9999367679253 -4.185942801970 0.0109955591995 85.829425922102
0.224000000000000 0.0110944471895 85.791747728403 0.9999356504847 -4.223652139361 0.9999356504847 -4.223652139361 0.0110944522051 85.791715471755
0.226000000000000 0.0111933350506 85.754037243430 0.9999345233072 -4.261361392002 0.9999345233072 -4.261361392002 0.0111933401065 85.754004976634
0.228000000000000 0.0112922177642 85.716326712829 0.9999333863950 -4.299070559160 0.9999333863950 -4.299070559160 0.0112922228594 85.716294442414
0.230000000000000 0.0113910952859 85.678616142298 0.9999322397500 -4.336779640101 0.9999322397500 -4.336779640101 0.0113911004192 85.678583874591
0.232000000000000 0.0114899675711 85.640905537338 0.9999310833744 -4.374488634091 0.9999310833744 -4.374488634091 0.0114899727415 85.640873278483
0.234000000000000 0.0115888345756 85.603194903297 0.9999299172702 -4.412197540398 0.9999299172702 -4.412197540398 0.0115888397820 85.603162659246
0.236000000000000 0.0116876962548 85.565484245349 0.9999287414397 -4.449906358288 0.9999287414397 -4.449906358288 0.0116877014960 85.565452021883
0.238000000000000 0.0117865525642 85.527773568516 0.9999275558849 -4.487615087029 0.9999275558849 -4.487615087029 0.0117865578392 85.527741371239
0.240000000000000 0.0118854034595 85.490062877664 0.9999263606081 -4.525323725887 0.9999263606081 -4.525323725887 0.0118854087672 85.490030712016
0.242000000000000 0.0119842488961 85.452352177514 0.9999251556114 -4.563032274131 0.9999251556114 -4.563032274131 0.0119842542355 85.452320048775
0.244000000000000 0.0120830888297 85.414641472658 0.9999239408970 -4.600740731027 0.9999239408970 -4.600740731027 0.0120830941997 85.414609385952
0.246000000000000 0.0121819232158 85.376930767544 0.9999227164672 -4.638449095845 0.9999227164672 -4.638449095845 0.0121819286154 85.376898727841
0.248000000000000 0.0122807520099 85.339220066502 0.9999214823241 -4.676157367850 0.9999214823241 -4.676157367850 0.0122807574381 85.339188078628
0.250000000000000 0.0123795751677 85.301509373723 0.9999202384700 -4.713865546313 0.9999202384700 -4.713865546313 0.0123795806235 85.301477442369
0.252000000000000 0.0124783926448 85.263798693306 0.9999189849072 -4.751573630500 0.9999189849072 -4.751573630500 0.0124783981270 85.263766823018
0.254000000000000 0.0125772043966 85.226088029217 0.9999177216380 -4.789281619681 0.9999177216380 -4.789281619681 0.0125772099044 85.226056224407
0.256000000000000 0.0126760103788 85.188377385320 0.9999164486646 -4.826989513124 0.9999164486646 -4.826989513124 0.0126760159111 85.188345650283
0.258000000000000 0.0127748105471 85.150666765374 0.9999151659894 -4.864697310098 0.9999151659894 -4.864697310098 0.0127748161028 85.150635104273
0.260000000000000 0.0128736048568 85.112956173043 0.9999138736147 -4.902405009872 0.9999138736147 -4.902405009872 0.0128736104350 85.112924589916
0.262000000000000 0.0129723932637 85.075245611882 0.9999125715429 -4.940112611715 0.9999125715429 -4.940112611715 0.0129723988635 85.075214110660
0.264000000000000 0.0130711757234 85.037535085368 0.9999112597763 -4.977820114896 0.9999112597763 -4.977820114896 0.0130711813437 85.037503669861
0.266000000000000 0.0131699521914 84.999824596878 0.9999099383174 -5.015527518686 0.9999099383174 -5.015527518686 0.0131699578313 84.999793270791
0.268000000000000 0.0132687226234 84.962114149708 0.9999086071685 -5.053234822353 0.9999086071685 -5.053234822353 0.0132687282819 84.962082916638
0.270000000000000 0.0133674869749 84.924403747079 0.9999072663320 -5.090942025167 0.9999072663320 -5.090942025167 0.0133674926511 84.924372610512
0.272000000000000 0.0134662452016 84.886693392105 0.9999059158104 -5.128649126400 0.9999059158104 -5.128649126400 0.0134662508945 84.886662355442
0.274000000000000 0.0135649972591 84.848983087860 0.9999045556061 -5.166356125319 0.9999045556061 -5.166356125319 0.0135650029678 84.848952154389
0.276000000000000 0.0136637431029 84.811272837315 0.9999031857216 -5.204063021198 0.9999031857216 -5.204063021198 0.0136637488265 84.811242010236
0.278000000000000 0.0137624826888 84.773562643390 0.9999018061594 -5.241769813305 0.9999018061594 -5.241769813305 0.0137624884263 84.773531925809
0.280000000000000 0.0138612159724 84.735852508922 0.9999004169220 -5.279476500912 0.9999004169220 -5.279476500912 0.0138612217229 84.735821903859
0.282000000000000 0.0139599429092 84.698142436683 0.9998990180119 -5.317183083291 0.9998990180119 -5.317183083291 0.0139599486718 84.698111947067
0.284000000000000 0.0140586634549 84.660432429393 0.9998976094316 -5.354889559711 0.9998976094316 -5.354889559711 0.0140586692288 84.660402058072
0.286000000000000 0.0141573775651 84.622722489699 0.9998961911837 -5.392595929444 0.9998961911837 -5.392595929444 0.0141573833494 84.622692239435
0.288000000000000 0.0142560851955 84.585012620192 0.9998947632708 -5.430302191762 0.9998947632708 -5.430302191762 0.0142560909892 84.584982493670
0.290000000000000 0.0143547863018 84.547302823405 0.9998933256954 -5.468008345938 0.9998933256954 -5.468008345938 0.0143547921041 84.547272823225
0.292000000000000 0.0144534808395 84.509593101816 0.9998918784602 -5.505714391241 0.9998918784602 -5.505714391241 0.0144534866495 84.509563230512
0.294000000000000 0.0145521687643 84.471883457849 0.9998904215677 -5.543420326946 0.9998904215677 -5.543420326946 0.0145521745812 84.471853717877
0.296000000000000 0.0146508500319 84.434173893879 0.9998889550207 -5.581126152324 0.9998889550207 -5.581126152324 0.0146508558548 84.434144287621
0.298000000000000 0.0147495245979 84.396464412224 0.9998874788217 -5.618831866649 0.9998874788217 -5.618831866649 0.0147495304259 84.396434941997
0.300000000000000 0.0148481924180 84.358755015162 0.9998859929735 -5.656537469191 0.9998859929735 -5.656537469191 0.0148481982504 84.358725683211
0.302000000000000 0.0149468534479 84.321045704921 0.9998844974787 -5.694242959226 0.9998844974787 -5.694242959226 0.0149468592838 84.321016513427
0.304000000000000 0.0150455076432 84.283336483684 0.9998829923400 -5.731948336025 0.9998829923400 -5.731948336025 0.0150455134817 84.283307434761
0.306000000000000 0.0151441549596 84.245627353588 0.9998814775601 -5.769653598862 0.9998814775601 -5.769653598862 0.0151441608000 84.245598449290
0.308000000000000 0.0152427953528 84.207918316726 0.9998799531418 -5.807358747011 0.9998799531418 -5.807358747011 0.0152428011942 84.207889559045
0.310000000000000 0.0153414287785 84.170209375157 0.9998784190879 -5.845063779746 0.9998784190879 -5.845063779746 0.0153414346201 84.170180766025
0.312000000000000 0.0154400551923 84.132500530899 0.9998768754011 -5.882768696341 0.9998768754011 -5.882768696341 0.0154400610334 84.132472072188
0.314000000000000 0.0155386745500 84.094791785924 0.9998753220841 -5.920473496069 0.9998753220841 -5.920473496069 0.0155386803897 84.094763479455
0.316000000000000 0.0156372868072 84.057083142181 0.9998737591399 -5.958178178206 0.9998737591399 -5.958178178206 0.0156372926448 84.057054989711
0.318000000000000 0.0157358919196 84.019374601566 0.9998721865712 -5.995882742025 0.9998721865712 -5.995882742025 0.0157358977544 84.019346604807
0.320000000000000 0.0158344898430 83.981666165953 0.9998706043808 -6.033587186802 0.9998706043808 -6.033587186802 0.0158344956741 83.981638326558
0.322000000000000 0.0159330805330 83.943957837179 0.9998690125717 -6.071291511813 0.9998690125717 -6.071291511813 0.0159330863597 83.943930156752
0.324000000000000 0.0160316639454 83.906249617045 0.9998674111466 -6.108995716331 0.9998674111466 -6.108995716331 0.0160316697669 83.906222097140
0.326000000000000 0.0161302400359 83.868541507326 0.9998658001086 -6.146699799633 0.9998658001086 -6.146699799633 0.0161302458515 83.868514149450
0.328000000000000 0.0162288087601 83.830833509763 0.9998641794603 -6.184403760994 0.9998641794603 -6.184403760994 0.0162288145691 83.830806315370
0.330000000000000 0.0163273700739 83.793125626064 0.9998625492049 -6.222107599691 0.9998625492049 -6.222107599691 0.0163273758756 83.793098596567
0.332000000000000 0.0164259239330 83.755417857914 0.9998609093453 -6.259811314999 0.9998609093453 -6.259811314999 0.0164259297265 83.755390994677
0.334000000000000 0.0165244702930 83.717710206969 0.9998592598843 -6.297514906195 0.9998592598843 -6.297514906195 0.0165244760777 83.717683511314
0.336000000000000 0.0166230091098 83.680002674854 0.9998576008249 -6.335218372556 0.9998576008249 -6.335218372556 0.0166230148850 83.679976148059
0.338000000000000 0.0167215403390 83.642295263171 0.9998559321703 -6.372921713358 0.9998559321703 -6.372921713358 0.0167215461040 83.642268906472
0.340000000000000 0.0168200639365 83.604587973499 0.9998542539232 -6.410624927879 0.9998542539232 -6.410624927879 0.0168200696906 83.604561788087
0.342000000000000 0.0169185798579 83.566880807383 0.9998525660869 -6.448328015395 0.9998525660869 -6.448328015395 0.0169185856004 83.566854794418
0.344000000000000 0.0170170880591 83.529173766355 0.9998508686643 -6.486030975185 0.9998508686643 -6.486030975185 0.0170170937893 83.529147926949
0.346000000000000 0.0171155884957 83.491466851919 0.9998491616584 -6.523733806525 0.9998491616584 -6.523733806525 0.0171155942130 83.491441187143
0.348000000000000 0.0172140811236 83.453760065553 0.9998474450724 -6.561436508695 0.9998474450724 -6.561436508695 0.0172140868272 83.453734576450
0.350000000000000 0.0173125658985 83.416053408718 0.9998457189093 -6.599139080971 0.9998457189093 -6.599139080971 0.0173125715879 83.416028096287
0.352000000000000 0.0174110427762 83.378346882850 0.9998439831722 -6.636841522634 0.9998439831722 -6.636841522634 0.0174110484507 83.378321748057
0.354000000000000 0.0175095117125 83.340640489368 0.9998422378643 -6.674543832961 0.9998422378643 -6.674543832961 0.0175095173714 83.340615533144
0.356000000000000 0.0176079726632 83.302934229668 0.9998404829886 -6.712246011231 0.9998404829886 -6.712246011231 0.0176079783058 83.302909452906
0.358000000000000 0.0177064255840 83.265228105125 0.9998387185485 -6.749948056723 0.9998387185485 -6.749948056723 0.0177064312098 83.265203508688
0.360000000000000 0.0178048704307 83.227522117099 0.9998369445469 -6.787649968718 0.9998369445469 -6.787649968718 0.0178048760391 83.227497701816
0.362000000000000 0.0179033071592 83.189816266930 0.9998351609871 -6.825351746494 0.9998351609871 -6.825351746494 0.0179033127495 83.189792033598
0.364000000000000 0.0180017357253 83.152110555938 0.9998333678724 -6.863053389331 0.9998333678724 -6.863053389331 0.0180017412969 83.152086505324
0.366000000000000 0.0181001560847 83.114404985430 0.9998315652059 -6.900754896510 0.9998315652059 -6.900754896510 0.0181001616370 83.114381118265
0.368000000000000 0.0181985681933 83.076699556689 0.9998297529908 -6.938456267311 0.9998297529908 -6.938456267311 0.0181985737257 83.076675873679
0.370000000000000 0.0182969720069 83.038994270986 0.9998279312305 -6.976157501014 0.9998279312305 -6.976157501014 0.0182969775188 83.038970772803
0.372000000000000 0.0183953674812 83.001289129579 0.9998260999281 -7.013858596900 0.9998260999281 -7.013858596900 0.0183953729721 83.001265816871
0.374000000000000 0.0184937545723 82.963584133702 0.9998242590871 -7.051559554252 0.9998242590871 -7.051559554252 0.0184937600415 82.963561007084
0.376000000000000 0.0185921332358 82.925879284581 0.9998224087106 -7.089260372348 0.9998224087106 -7.089260372348 0.0185921386828 82.925856344644
0.378000000000000 0.0186905034276 82.888174583426 0.9998205488020 -7.126961050473 0.9998205488020 -7.126961050473 0.0186905088519 82.888151830731
0.380000000000000 0.0187888651036 82.850470031427 0.9998186793646 -7.164661587906 0.9998186793646 -7.164661587906 0.0187888705046 82.850447466511
0.382000000000000 0.0188872182196 82.812765629767 0.9998168004019 -7.202361983931 0.9998168004019 -7.202361983931 0.0188872235967 82.812743253138
0.384000000000000 0.0189855627315 82.775061379610 0.9998149119171 -7.240062237830 0.9998149119171 -7.240062237830 0.0189855680841 82.775039191752
0.386000000000000 0.0190838985950 82.737357282109 0.9998130139137 -7.277762348886 0.9998130139137 -7.277762348886 0.0190839039228 82.737335283486
0.388000000000000 0.0191822257662 82.699653338407 0.9998111063950 -7.315462316380 0.9998111063950 -7.315462316380 0.0191822310684 82.699631529448
0.390000000000000 0.0192805442008 82.661949549632 0.9998091893645 -7.353162139597 0.9998091893645 -7.353162139597 0.0192805494771 82.661927930748
0.392000000000000 0.0193788538548 82.624245916894 0.9998072628256 -7.390861817820 0.9998072628256 -7.390861817820 0.0193788591045 82.624224488474
0.394000000000000 0.0194771546840 82.586542441300 0.9998053267817 -7.428561350332 0.9998053267817 -7.428561350332 0.0194771599066 82.586521203709
0.396000000000000 0.0195754466442 82.548839123940 0.9998033812364 -7.466260736418 0.9998033812364 -7.466260736418 0.0195754518394 82.548818077518
0.398000000000000 0.0196737296915 82.511135965895 0.9998014261931 -7.503959975361 0.9998014261931 -7.503959975361 0.0196737348586 82.511115110957
0.400000000000000 0.0197720037816 82.473432968229 0.9997994616553 -7.541659066447 0.9997994616553 -7.541659066447 0.0197720089202 82.473412305078
0.402000000000000 0.0198702688706 82.435730132008 0.9997974876266 -7.579358008959 0.9997974876266 -7.579358008959 0.0198702739801 82.435709660918
0.404000000000000 0.0199685249142 82.398027458275 0.9997955041104 -7.617056802182 0.9997955041104 -7.617056802182 0.0199685299942 82.398007179501
0.406000000000000 0.0200667718684 82.360324948064 0.9997935111104 -7.654755445403 0.9997935111104 -7.654755445403 0.0200667769185 82.360304861843
0.408000000000000 0.0201650096891 82.322622602410 0.9997915086300 -7.692453937906 0.9997915086300 -7.692453937906 0.0201650147088 82.322602708954
0.410000000000000 0.0202632383323 82.284920422323 0.9997894966729 -7.730152278978 0.9997894966729 -7.730152278978 0.0202632433211 82.284900721828
0.412000000000000 0.0203614577539 82.247218408814 0.9997874752427 -7.767850467904 0.9997874752427 -7.767850467904 0.0203614627114 82.247198901457
0.414000000000000 0.0204596679098 82.209516562883 0.9997854443430 -7.805548503970 0.9997854443430 -7.805548503970 0.0204596728355 82.209497248817
0.416000000000000 0.0205578687559 82.171814885517 0.9997834039775 -7.843246386464 0.9997834039775 -7.843246386464 0.0205578736494 82.171795764884
0.418000000000000 0.0206560602483 82.134113377698 0.9997813541497 -7.880944114672 0.9997813541497 -7.880944114672 0.0206560651090 82.134094450615
0.420000000000000 0.0207542423427 82.096412040395 0.9997792948633 -7.918641687881 0.9997792948633 -7.918641687881 0.0207542471704 82.096393306967
0.422000000000000 0.0208524149953 82.058710874576 0.9997772261221 -7.956339105379 0.9997772261221 -7.956339105379 0.0208524197895 82.058692334885
0.424000000000000 0.0209505781620 82.021009881191 0.9997751479297 -7.994036366453 0.9997751479297 -7.994036366453 0.0209505829222 82.020991535305
0.426000000000000 0.0210487317986 81.983309061192 0.9997730602898 -8.031733470392 0.9997730602898 -8.031733470392 0.0210487365246 81.983290909163
0.428000000000000 0.0211468758613 81.945608415518 0.9997709632062 -8.069430416483 0.9997709632062 -8.069430416483 0.0211468805526 81.945590457375
0.430000000000000 0.0212450103060 81.907907945097 0.9997688566827 -8.107127204015 0.9997688566827 -8.107127204015 0.0212450149621 81.907890180859
0.432000000000000 0.0213431350887 81.870207650855 0.9997667407229 -8.144823832278 0.9997667407229 -8.144823832278 0.0213431397093 81.870190080526
0.434000000000000 0.0214412501653 81.832507533711 0.9997646153308 -8.182520300560 0.9997646153308 -8.182520300560 0.0214412547500 81.832490157275
0.436000000000000 0.0215393554919 81.794807594574 0.9997624805099 -8.220216608150 0.9997624805099 -8.220216608150 0.0215393600403 81.794790411998
0.438000000000000 0.0216374510245 81.757107834343 0.9997603362643 -8.257912754339 0.9997603362643 -8.257912754339 0.0216374555363 81.757090845587
0.440000000000000 0.0217355367191 81.719408253921 0.9997581825977 -8.295608738416 0.9997581825977 -8.295608738416 0.0217355411938 81.719391458921
0.442000000000000 0.0218336125316 81.681708854190 0.9997560195140 -8.333304559672 0.9997560195140 -8.333304559672 0.0218336169690 81.681692252873
0.444000000000000 0.0219316784182 81.644009636037 0.9997538470169 -8.371000217396 0.9997538470169 -8.371000217396 0.0219316828178 81.643993228314
0.446000000000000 0.0220297343348 81.606310600338 0.9997516651105 -8.408695710881 0.9997516651105 -8.408695710881 0.0220297386964 81.606294386105
0.448000000000000 0.0221277802375 81.568611747964 0.9997494737986 -8.446391039417 0.9997494737986 -8.446391039417 0.0221277845606 81.568595727105
0.450000000000000 0.0222258160823 81.530913079779 0.9997472730851 -8.484086202295 0.9997472730851 -8.484086202295 0.0222258203667 81.530897252162
0.452000000000000 0.0223238418253 81.493214596638 0.9997450629740 -8.521781198808 0.9997450629740 -8.521781198808 0.0223238460706 81.493198962122
0.454000000000000 0.0224218574225 81.455516299398 0.9997428434691 -8.559476028247 0.9997428434691 -8.559476028247 0.0224218616284 81.455500857823
0.456000000000000 0.0225198628299 81.417818188905 0.9997406145745 -8.597170689905 0.9997406145745 -8.597170689905 0.0225198669961 81.417802940102
0.458000000000000 0.0226178580038 81.380120265998 0.9997383762941 -8.634865183074 0.9997383762941 -8.634865183074 0.0226178621299 81.380105209786
0.460000000000000 0.0227158429000 81.342422531516 0.9997361286320 -8.672559507048 0.9997361286320 -8.672559507048 0.0227158469857 81.342407667697
0.462000000000000 0.0228138174747 81.304724986289 0.9997338715921 -8.710253661119 0.9997338715921 -8.710253661119 0.0228138215198 81.304710314657
0.464000000000000 0.0229117816839 81.267027631140 0.9997316051784 -8.747947644581 0.9997316051784 -8.747947644581 0.0229117856881 81.267013151474
0.466000000000000 0.0230097354839 81.229330466893 0.9997293293950 -8.785641456729 0.9997293293950 -8.785641456729 0.0230097394468 81.229316178962
0.468000000000000 0.0231076788305 81.191633494360 0.9997270442460 -8.823335096855 0.9997270442460 -8.823335096855 0.0231076827520 81.191619397922
0.470000000000000 0.0232056116801 81.153936714353 0.9997247497355 -8.861028564255 0.9997247497355 -8.861028564255 0.0232056155597 81.153922809153
0.472000000000000 0.0233035339886 81.116240127679 0.9997224458675 -8.898721858223 0.9997224458675 -8.898721858223 0.0233035378261 81.116226413453
0.474000000000000 0.0234014457121 81.078543735139 0.9997201326461 -8.936414978055 0.9997201326461 -8.936414978055 0.0234014495074 81.078530211608
0.476000000000000 0.0234993468069 81.040847537528 0.9997178100754 -8.974107923045 0.9997178100754 -8.974107923045 0.0234993505596 81.040834204405
0.478000000000000 0.0235972372290 81.003151535639 0.9997154781597 -9.011800692490 0.9997154781597 -9.011800692490 0.0235972409388 81.003138392628
0.480000000000000 0.0236951169346 80.965455730264 0.9997131369031 -9.049493285686 0.9997131369031 -9.049493285686 0.0236951206013 80.965442777052
0.482000000000000 0.0237929858798 80.927760122182 0.9997107863096 -9.087185701928 0.9997107863096 -9.087185701928 0.0237929895031 80.927747358451
0.484000000000000 0.0238908440207 80.890064712173 0.9997084263836 -9.124877940514 0.9997084263836 -9.124877940514 0.0238908476005 80.890052137594
0.486000000000000 0.0239886913135 80.852369501011 0.9997060571292 -9.162570000740 0.9997060571292 -9.162570000740 0.0239886948495 80.852357115246
0.488000000000000 0.0240865277144 80.814674489474 0.9997036785507 -9.200261881905 0.9997036785507 -9.200261881905 0.0240865312063 80.814662292171
0.490000000000000 0.0241843531795 80.776979678323 0.9997012906523 -9.237953583305 0.9997012906523 -9.237953583305 0.0241843566272 80.776967669123
0.492000000000000 0.0242821676651 80.739285068324 0.9996988934382 -9.275645104238 0.9996988934382 -9.275645104238 0.0242821710682 80.739273246861
0.494000000000000 0.0243799711272 80.701590660234 0.9996964869127 -9.313336444002 0.9996964869127 -9.313336444002 0.0243799744857 80.701579026132
0.496000000000000 0.0244777635221 80.663896454816 0.9996940710801 -9.351027601897 0.9996940710801 -9.351027601897 0.0244777668356 80.663885007684
0.498000000000000 0.0245755448060 80.626202452817 0.9996916459447 -9.388718577221 0.9996916459447 -9.388718577221 0.0245755480744 80.626191192261
0.500000000000000 0.0246733149350 80.588508654991 0.9996892115108 -9.426409369273 0.9996892115108 -9.426409369273 0.0246733181581 80.588497580604
0.502000000000000 0.0247710738654 80.550815062077 0.9996867677827 -9.464099977353 0.9996867677827 -9.464099977353 0.0247710770431 80.550804173449
0.504000000000000 0.0248688215534 80.513121674824 0.9996843147649 -9.501790400761 0.9996843147649 -9.501790400761 0.0248688246854 80.513110971529