! Sonnet Data File
! From: em Version : 19.52.2025
! From Project: CPW
! Data is De-embedded 
! Data File Written: 02/24/2026 12:47:38
!< HDATE 02/24/2026 12:38:38
!< MDATE 02/24/2026 12:38:38
!< PARAMS
!< Lk = 0
!< END PARAMS
# GHZ S MA R 50.00000
0.100000000000000 0.0020639407791 88.315505841712 0.9999965954181 -1.719862091811 0.9999965954176 -1.719862091827 0.0020639407806 88.315505841474
0.102000000000000 0.0021052669499 88.281156812036 0.9999964850515 -1.754262578939 0.9999964850515 -1.754262578939 0.0021052671526 88.281156454701
0.104000000000000 0.0021465922418 88.246804824597 0.9999963729773 -1.788663056877 0.9999963729773 -1.788663056877 0.0021465926668 88.246804725702
0.106000000000000 0.0021879166440 88.212450173317 0.9999962591771 -1.823063524360 0.9999962591771 -1.823063524360 0.0021879172882 88.212450314661
0.108000000000000 0.0022292401419 88.178093014364 0.9999961436511 -1.857463981283 0.9999961436511 -1.857463981283 0.0022292410023 88.178093378929
0.110000000000000 0.0022705627209 88.143733492595 0.9999960263996 -1.891864427540 0.9999960263996 -1.891864427540 0.0022705637944 88.143734064373
0.112000000000000 0.0023118843663 88.109371742457 0.9999959074230 -1.926264863025 0.9999959074230 -1.926264863025 0.0023118856499 88.109372506413
0.114000000000000 0.0023532050635 88.075007888923 0.9999957867216 -1.960665287635 0.9999957867216 -1.960665287635 0.0023532065542 88.075008830925
0.116000000000000 0.0023945247979 88.040642048260 0.9999956642955 -1.995065701262 0.9999956642955 -1.995065701262 0.0023945264927 88.040643155035
0.118000000000000 0.0024358435549 88.006274328898 0.9999955401452 -2.029466103802 0.9999955401452 -2.029466103802 0.0024358454507 88.006275587913
0.120000000000000 0.0024771613197 87.971904831912 0.9999954142709 -2.063866495149 0.9999954142709 -2.063866495149 0.0024771634138 87.971906231394
0.122000000000000 0.0025184780779 87.937533651772 0.9999952866729 -2.098266875198 0.9999952866729 -2.098266875198 0.0025184803672 87.937535180639
0.124000000000000 0.0025597938148 87.903160876826 0.9999951573516 -2.132667243843 0.9999951573516 -2.132667243843 0.0025597962963 87.903162524596
0.126000000000000 0.0026011085156 87.868786589743 0.9999950263072 -2.167067600980 0.9999950263072 -2.167067600980 0.0026011111866 87.868788346532
0.128000000000000 0.0026424221659 87.834410868002 0.9999948935401 -2.201467946502 0.9999948935401 -2.201467946502 0.0026424250233 87.834412724505
0.130000000000000 0.0026837347510 87.800033784321 0.9999947590506 -2.235868280304 0.9999947590506 -2.235868280304 0.0026837377920 87.800035731709
0.132000000000000 0.0027250462562 87.765655406902 0.9999946228389 -2.270268602280 0.9999946228389 -2.270268602280 0.0027250494780 87.765657436898
0.134000000000000 0.0027663566669 87.731275799939 0.9999944849054 -2.304668912326 0.9999944849054 -2.304668912326 0.0027663600666 87.731277904693
0.136000000000000 0.0028076659685 87.696895023765 0.9999943452505 -2.339069210335 0.9999943452505 -2.339069210335 0.0028076695433 87.696897195833
0.138000000000000 0.0028489741463 87.662513135194 0.9999942038744 -2.373469496202 0.9999942038744 -2.373469496202 0.0028489778935 87.662515367590
0.140000000000000 0.0028902811857 87.628130187788 0.9999940607774 -2.407869769822 0.9999940607774 -2.407869769822 0.0028902851024 87.628132473863
0.142000000000000 0.0029315870721 87.593746232053 0.9999939159600 -2.442270031089 0.9999939159600 -2.442270031089 0.0029315911556 87.593748565552
0.144000000000000 0.0029728917909 87.559361315665 0.9999937694223 -2.476670279898 0.9999937694223 -2.476670279898 0.0029728960383 87.559363690641
0.146000000000000 0.0030141953273 87.524975483667 0.9999936211647 -2.511070516143 0.9999936211647 -2.511070516143 0.0030141997360 87.524977894520
0.148000000000000 0.0030554976668 87.490588778624 0.9999934711876 -2.545470739718 0.9999934711876 -2.545470739718 0.0030555022341 87.490591220050
0.150000000000000 0.0030967987948 87.456201240842 0.9999933194913 -2.579870950519 0.9999933194913 -2.579870950519 0.0030968035179 87.456203707820
0.152000000000000 0.0031380986965 87.421812908467 0.9999931660761 -2.614271148439 0.9999931660761 -2.614271148439 0.0031381035728 87.421815396236
0.154000000000000 0.0031793973574 87.387423817633 0.9999930109424 -2.648671333372 0.9999930109424 -2.648671333372 0.0031794023842 87.387426321709
0.156000000000000 0.0032206947628 87.353034002598 0.9999928540904 -2.683071505214 0.9999928540904 -2.683071505214 0.0032206999375 87.353036518734
0.158000000000000 0.0032619908981 87.318643495905 0.9999926955206 -2.717471663859 0.9999926955206 -2.717471663859 0.0032619962180 87.318646020047
0.160000000000000 0.0033032857486 87.284252328381 0.9999925352332 -2.751871809201 0.9999925352332 -2.751871809201 0.0033032912111 87.284254856749
0.162000000000000 0.0033445792997 87.249860529350 0.9999923732286 -2.786271941135 0.9999923732286 -2.786271941135 0.0033445849022 87.249863058352
0.164000000000000 0.0033858715368 87.215468126709 0.9999922095072 -2.820672059555 0.9999922095072 -2.820672059555 0.0033858772767 87.215470652927
0.166000000000000 0.0034271624452 87.181075146943 0.9999920440692 -2.855072164355 0.9999920440692 -2.855072164355 0.0034271683200 87.181077667171
0.168000000000000 0.0034684520103 87.146681615285 0.9999918769151 -2.889472255430 0.9999918769151 -2.889472255430 0.0034684580174 87.146684126481
0.170000000000000 0.0035097402175 87.112287555752 0.9999917080451 -2.923872332674 0.9999917080451 -2.923872332674 0.0035097463543 87.112290055057
0.172000000000000 0.0035510270520 87.077892991255 0.9999915374597 -2.958272395982 0.9999915374597 -2.958272395982 0.0035510333161 87.077895475932
0.174000000000000 0.0035923124993 87.043497943572 0.9999913651592 -2.992672445247 0.9999913651592 -2.992672445247 0.0035923188881 87.043500411071
0.176000000000000 0.0036335965447 87.009102433516 0.9999911911439 -3.027072480365 0.9999911911439 -3.027072480365 0.0036336030558 87.009104881429
0.178000000000000 0.0036748791736 86.974706480975 0.9999910154142 -3.061472501230 0.9999910154142 -3.061472501230 0.0036748858044 86.974708907010
0.180000000000000 0.0037161603713 86.940310104864 0.9999908379704 -3.095872507736 0.9999908379704 -3.095872507736 0.0037161671195 86.940312506894
0.182000000000000 0.0037574401231 86.905913323319 0.9999906588130 -3.130272499777 0.9999906588130 -3.130272499777 0.0037574469863 86.905915699298
0.184000000000000 0.0037987184146 86.871516153604 0.9999904779422 -3.164672477247 0.9999904779422 -3.164672477247 0.0037987253902 86.871518501656
0.186000000000000 0.0038399952309 86.837118612289 0.9999902953584 -3.199072440042 0.9999902953584 -3.199072440042 0.0038400023166 86.837120930614
0.188000000000000 0.0038812705575 86.802720715181 0.9999901110620 -3.233472388056 0.9999901110620 -3.233472388056 0.0038812777508 86.802723002105
0.190000000000000 0.0039225443796 86.768322477424 0.9999899250534 -3.267872321181 0.9999899250534 -3.267872321181 0.0039225516783 86.768324731374
0.192000000000000 0.0039638166828 86.733923913514 0.9999897373329 -3.302272239315 0.9999897373329 -3.302272239315 0.0039638240844 86.733926133005
0.194000000000000 0.0040050874522 86.699525037321 0.9999895479009 -3.336672142349 0.9999895479009 -3.336672142349 0.0040050949545 86.699527220992
0.196000000000000 0.0040463566734 86.665125862175 0.9999893567578 -3.371072030178 0.9999893567578 -3.371072030178 0.0040463642739 86.665128008706
0.198000000000000 0.0040876243315 86.630726400779 0.9999891639039 -3.405471902699 0.9999891639039 -3.405471902699 0.0040876320281 86.630728508990
0.200000000000000 0.0041288904121 86.596326665397 0.9999889693397 -3.439871759803 0.9999889693397 -3.439871759803 0.0041288982023 86.596328734146
0.202000000000000 0.0041701549003 86.561926667729 0.9999887730654 -3.474271601386 0.9999887730654 -3.474271601386 0.0041701627820 86.561928695973
0.204000000000000 0.0042114177816 86.527526419025 0.9999885750815 -3.508671427341 0.9999885750815 -3.508671427341 0.0042114257525 86.527528405810
0.206000000000000 0.0042526790414 86.493125930095 0.9999883753883 -3.543071237564 0.9999883753883 -3.543071237564 0.0042526870992 86.493127874514
0.208000000000000 0.0042939386650 86.458725211308 0.9999881739863 -3.577471031948 0.9999881739863 -3.577471031948 0.0042939468074 86.458727112542
0.210000000000000 0.0043351966377 86.424324272631 0.9999879708758 -3.611870810388 0.9999879708758 -3.611870810388 0.0043352048626 86.424326129916
0.212000000000000 0.0043764529449 86.389923123627 0.9999877660572 -3.646270572778 0.9999877660572 -3.646270572778 0.0043764612500 86.389924936268
0.214000000000000 0.0044177075719 86.355521773499 0.9999875595309 -3.680670319012 0.9999875595309 -3.680670319012 0.0044177159552 86.355523540869
0.216000000000000 0.0044589605041 86.321120231125 0.9999873512973 -3.715070048985 0.9999873512973 -3.715070048985 0.0044589689633 86.321121952634
0.218000000000000 0.0045002117269 86.286718504984 0.9999871413568 -3.749469762590 0.9999871413568 -3.749469762590 0.0045002202598 86.286720180098
0.220000000000000 0.0045414612255 86.252316603283 0.9999869297097 -3.783869459723 0.9999869297097 -3.783869459723 0.0045414698301 86.252318231551
0.222000000000000 0.0045827089854 86.217914533898 0.9999867163565 -3.818269140277 0.9999867163565 -3.818269140277 0.0045827176595 86.217916114899
0.224000000000000 0.0046239549919 86.183512304419 0.9999865012976 -3.852668804146 0.9999865012976 -3.852668804146 0.0046239637334 86.183513837780
0.226000000000000 0.0046651992303 86.149109922162 0.9999862845333 -3.887068451225 0.9999862845333 -3.887068451225 0.0046652080371 86.149111407562
0.228000000000000 0.0047064416860 86.114707394158 0.9999860660641 -3.921468081408 0.9999860660641 -3.921468081408 0.0047064505561 86.114708831321
0.230000000000000 0.0047476823443 86.080304727198 0.9999858458903 -3.955867694589 0.9999858458903 -3.955867694589 0.0047476912756 86.080306115887
0.232000000000000 0.0047889211907 86.045901927824 0.9999856240124 -3.990267290663 0.9999856240124 -3.990267290663 0.0047889301811 86.045903267856
0.234000000000000 0.0048301582103 86.011499002333 0.9999854004308 -4.024666869524 0.9999854004308 -4.024666869524 0.0048301672579 86.011500293553
0.236000000000000 0.0048713933887 85.977095956802 0.9999851751459 -4.059066431065 0.9999851751459 -4.059066431065 0.0048714024913 85.977097199092
0.238000000000000 0.0049126267110 85.942692797113 0.9999849481580 -4.093465975182 0.9999849481580 -4.093465975182 0.0049126358668 85.942693990378
0.240000000000000 0.0049538581628 85.908289528904 0.9999847194677 -4.127865501769 0.9999847194677 -4.127865501769 0.0049538673697 85.908290673117
0.242000000000000 0.0049950877292 85.873886157639 0.9999844890753 -4.162265010719 0.9999844890753 -4.162265010719 0.0049950969853 85.873887252789
0.244000000000000 0.0050363153958 85.839482688610 0.9999842569812 -4.196664501927 0.9999842569812 -4.196664501927 0.0050363246990 85.839483734710
0.246000000000000 0.0050775411478 85.805079126864 0.9999840231859 -4.231063975287 0.9999840231859 -4.231063975287 0.0050775504963 85.805080123986
0.248000000000000 0.0051187649705 85.770675477354 0.9999837876897 -4.265463430693 0.9999837876897 -4.265463430693 0.0051187743623 85.770676425568
0.250000000000000 0.0051599868493 85.736271744818 0.9999835504932 -4.299862868040 0.9999835504932 -4.299862868040 0.0051599962826 85.736272644233
0.252000000000000 0.0052012067696 85.701867933843 0.9999833115967 -4.334262287223 0.9999833115967 -4.334262287223 0.0052012162424 85.701868784599
0.254000000000000 0.0052424247167 85.667464048856 0.9999830710006 -4.368661688133 0.9999830710006 -4.368661688133 0.0052424342271 85.667464851117
0.256000000000000 0.0052836406760 85.633060094132 0.9999828287053 -4.403061070668 0.9999828287053 -4.403061070668 0.0052836502222 85.633060848092
0.258000000000000 0.0053248546327 85.598656073820 0.9999825847114 -4.437460434719 0.9999825847114 -4.437460434719 0.0053248642129 85.598656779699
0.260000000000000 0.0053660665723 85.564251991953 0.9999823390192 -4.471859780183 0.9999823390192 -4.471859780183 0.0053660761845 85.564252649969
0.262000000000000 0.0054072764801 85.529847852356 0.9999820916292 -4.506259106952 0.9999820916292 -4.506259106952 0.0054072861226 85.529848462787
0.264000000000000 0.0054484843414 85.495443658813 0.9999818425417 -4.540658414921 0.9999818425417 -4.540658414921 0.0054484940124 85.495444221924
0.266000000000000 0.0054896901415 85.461039414934 0.9999815917573 -4.575057703985 0.9999815917573 -4.575057703985 0.0054896998392 85.461039931033
0.268000000000000 0.0055308938659 85.426635124230 0.9999813392764 -4.609456974037 0.9999813392764 -4.609456974037 0.0055309035885 85.426635593630
0.270000000000000 0.0055720954999 85.392230790087 0.9999810850993 -4.643856224972 0.9999810850993 -4.643856224972 0.0055721052456 85.392231213137
0.272000000000000 0.0056132950288 85.357826415804 0.9999808292266 -4.678255456684 0.9999808292266 -4.678255456684 0.0056133047959 85.357826792847
0.274000000000000 0.0056544924379 85.323422004549 0.9999805716588 -4.712654669067 0.9999805716588 -4.712654669067 0.0056545022247 85.323422335978
0.276000000000000 0.0056956877126 85.289017559421 0.9999803123961 -4.747053862016 0.9999803123961 -4.747053862016 0.0056956975173 85.289017845607
0.278000000000000 0.0057368808383 85.254613083403 0.9999800514391 -4.781453035424 0.9999800514391 -4.781453035424 0.0057368906592 85.254613324745
0.280000000000000 0.0057780718002 85.220208579358 0.9999797887883 -4.815852189186 0.9999797887883 -4.815852189186 0.0057780816357 85.220208776298
0.282000000000000 0.0058192605838 85.185804050122 0.9999795244441 -4.850251323195 0.9999795244441 -4.850251323195 0.0058192704322 85.185804203079
0.284000000000000 0.0058604471744 85.151399498377 0.9999792584069 -4.884650437348 0.9999792584069 -4.884650437348 0.0058604570339 85.151399607804
0.286000000000000 0.0059016315573 85.116994926767 0.9999789906772 -4.919049531536 0.9999789906772 -4.919049531536 0.0059016414263 85.116994993131
0.288000000000000 0.0059428137178 85.082590337847 0.9999787212554 -4.953448605656 0.9999787212554 -4.953448605656 0.0059428235948 85.082590361612
0.290000000000000 0.0059839936414 85.048185734079 0.9999784501421 -4.987847659600 0.9999784501421 -4.987847659600 0.0059840035246 85.048185715734
0.292000000000000 0.0060251713133 85.013781117851 0.9999781773376 -5.022246693264 0.9999781773376 -5.022246693264 0.0060251812012 85.013781057893
0.294000000000000 0.0060663467189 84.979376491495 0.9999779028425 -5.056645706540 0.9999779028425 -5.056645706540 0.0060663566099 84.979376390437
0.296000000000000 0.0061075198435 84.944971857261 0.9999776266571 -5.091044699325 0.9999776266571 -5.091044699325 0.0061075297360 84.944971715611
0.298000000000000 0.0061486906725 84.910567217323 0.9999773487821 -5.125443671511 0.9999773487821 -5.125443671511 0.0061487005650 84.910567035625
0.300000000000000 0.0061898591912 84.876162573820 0.9999770692177 -5.159842622993 0.9999770692177 -5.159842622993 0.0061898690821 84.876162352590
0.302000000000000 0.0062310253850 84.841757928780 0.9999767879646 -5.194241553666 0.9999767879646 -5.194241553666 0.0062310352728 84.841757668587
0.304000000000000 0.0062721892393 84.807353284216 0.9999765050231 -5.228640463423 0.9999765050231 -5.228640463423 0.0062721991223 84.807352985604
0.306000000000000 0.0063133507392 84.772948642050 0.9999762203938 -5.263039352158 0.9999762203938 -5.263039352158 0.0063133606161 84.772948305586
0.308000000000000 0.0063545098703 84.738544004159 0.9999759340771 -5.297438219767 0.9999759340771 -5.297438219767 0.0063545197395 84.738543630419
0.310000000000000 0.0063956666178 84.704139372388 0.9999756460735 -5.331837066143 0.9999756460735 -5.331837066143 0.0063956764778 84.704138961929
0.312000000000000 0.0064368209671 84.669734748480 0.9999753563834 -5.366235891180 0.9999753563834 -5.366235891180 0.0064368308165 84.669734301898
0.314000000000000 0.0064779729035 84.635330134141 0.9999750650074 -5.400634694773 0.9999750650074 -5.400634694773 0.0064779827408 84.635329652040
0.316000000000000 0.0065191224123 84.600925531071 0.9999747719460 -5.435033476815 0.9999747719460 -5.435033476815 0.0065191322361 84.600925014035
0.318000000000000 0.0065602694790 84.566520940854 0.9999744771996 -5.469432237203 0.9999744771996 -5.469432237203 0.0065602792878 84.566520389501
0.320000000000000 0.0066014140889 84.532116365085 0.9999741807687 -5.503830975828 0.9999741807687 -5.503830975828 0.0066014238813 84.532115780011
0.322000000000000 0.0066425562272 84.497711805279 0.9999738826538 -5.538229692586 0.9999738826538 -5.538229692586 0.0066425660019 84.497711187100
0.324000000000000 0.0066836958794 84.463307262905 0.9999735828554 -5.572628387371 0.9999735828554 -5.572628387371 0.0066837056349 84.463306612247
0.326000000000000 0.0067248330308 84.428902739422 0.9999732813740 -5.607027060077 0.9999732813740 -5.607027060077 0.0067248427657 84.428902056905
0.328000000000000 0.0067659676666 84.394498236217 0.9999729782101 -5.641425710599 0.9999729782101 -5.641425710599 0.0067659773797 84.394497522465
0.330000000000000 0.0068070997724 84.360093754643 0.9999726733641 -5.675824338830 0.9999726733641 -5.675824338830 0.0068071094622 84.360093010303
0.332000000000000 0.0068482293334 84.325689296026 0.9999723668366 -5.710222944666 0.9999723668366 -5.710222944666 0.0068482389985 84.325688521710
0.334000000000000 0.0068893563349 84.291284861632 0.9999720586281 -5.744621528000 0.9999720586281 -5.744621528000 0.0068893659741 84.291284058003
0.336000000000000 0.0069304807623 84.256880452725 0.9999717487391 -5.779020088726 0.9999717487391 -5.779020088726 0.0069304903743 84.256879620403
0.338000000000000 0.0069716026010 84.222476070495 0.9999714371700 -5.813418626739 0.9999714371700 -5.813418626739 0.0069716121845 84.222475210147
0.340000000000000 0.0070127218363 84.188071716124 0.9999711239214 -5.847817141934 0.9999711239214 -5.847817141934 0.0070127313899 84.188070828383
0.342000000000000 0.0070538384535 84.153667390755 0.9999708089938 -5.882215634203 0.9999708089938 -5.882215634203 0.0070538479760 84.153666476273
0.344000000000000 0.0070949524380 84.119263095480 0.9999704923877 -5.916614103443 0.9999704923877 -5.916614103443 0.0070949619282 84.119262154920
0.346000000000000 0.0071360637750 84.084858831409 0.9999701741036 -5.951012549546 0.9999701741036 -5.951012549546 0.0071360732317 84.084857865414
0.348000000000000 0.0071771724501 84.050454599557 0.9999698541421 -5.985410972408 0.9999698541421 -5.985410972408 0.0071771818719 84.050453608796
0.350000000000000 0.0072182784485 84.016050400961 0.9999695325036 -6.019809371923 0.9999695325036 -6.019809371923 0.0072182878342 84.016049386079
0.352000000000000 0.0072593817555 83.981646236600 0.9999692091886 -6.054207747984 0.9999692091886 -6.054207747984 0.0072593911040 83.981645198261
0.354000000000000 0.0073004823565 83.947242107439 0.9999688841977 -6.088606100487 0.9999688841977 -6.088606100487 0.0073004916665 83.947241046300
0.356000000000000 0.0073415802368 83.912838014409 0.9999685575314 -6.123004429326 0.9999685575314 -6.123004429326 0.0073415895072 83.912836931138
0.358000000000000 0.0073826753818 83.878433958421 0.9999682291902 -6.157402734394 0.9999682291902 -6.157402734394 0.0073826846114 83.878432853676
0.360000000000000 0.0074237677769 83.844029940360 0.9999678991747 -6.191801015587 0.9999678991747 -6.191801015587 0.0074237769645 83.844028814806
0.362000000000000 0.0074648574073 83.809625961079 0.9999675674853 -6.226199272799 0.9999675674853 -6.226199272799 0.0074648665518 83.809624815372
0.364000000000000 0.0075059442584 83.775222021406 0.9999672341226 -6.260597505924 0.9999672341226 -6.260597505924 0.0075059533587 83.775220856221
0.366000000000000 0.0075470283156 83.740818122169 0.9999668990872 -6.294995714856 0.9999668990872 -6.294995714856 0.0075470373706 83.740816938167
0.368000000000000 0.0075881095642 83.706414264140 0.9999665623795 -6.329393899490 0.9999665623795 -6.329393899490 0.0075881185727 83.706413061981
0.370000000000000 0.0076291879896 83.672010448097 0.9999662240001 -6.363792059720 0.9999662240001 -6.363792059720 0.0076291969505 83.672009228441
0.372000000000000 0.0076702635771 83.637606674774 0.9999658839495 -6.398190195440 0.9999658839495 -6.398190195440 0.0076702724894 83.637605438292
0.374000000000000 0.0077113363120 83.603202944902 0.9999655422283 -6.432588306546 0.9999655422283 -6.432588306546 0.0077113451745 83.603201692259
0.376000000000000 0.0077524061797 83.568799259178 0.9999651988370 -6.466986392931 0.9999651988370 -6.466986392931 0.0077524149915 83.568797991033
0.378000000000000 0.0077934731655 83.534395618298 0.9999648537761 -6.501384454490 0.9999648537761 -6.501384454490 0.0077934819255 83.534394335306
0.380000000000000 0.0078345372548 83.499992022918 0.9999645070463 -6.535782491116 0.9999645070463 -6.535782491116 0.0078345459619 83.499990725748
0.382000000000000 0.0078755984329 83.465588473688 0.9999641586479 -6.570180502706 0.9999641586479 -6.570180502706 0.0078756070862 83.465587162990
0.384000000000000 0.0079166566852 83.431184971231 0.9999638085817 -6.604578489152 0.9999638085817 -6.604578489152 0.0079166652836 83.431183647672
0.386000000000000 0.0079577119971 83.396781516168 0.9999634568480 -6.638976450350 0.9999634568480 -6.638976450350 0.0079577205396 83.396780180398
0.388000000000000 0.0079987643538 83.362378109090 0.9999631034476 -6.673374386194 0.9999631034476 -6.673374386194 0.0079987728394 83.362376761762
0.390000000000000 0.0080398137407 83.327974750560 0.9999627483809 -6.707772296578 0.9999627483809 -6.707772296578 0.0080398221685 83.327973392341
0.392000000000000 0.0080808601432 83.293571441162 0.9999623916485 -6.742170181397 0.9999623916485 -6.742170181397 0.0080808685122 83.293570072691
0.394000000000000 0.0081219035466 83.259168181425 0.9999620332509 -6.776568040545 0.9999620332509 -6.776568040545 0.0081219118558 83.259166803366
0.396000000000000 0.0081629439362 83.224764971886 0.9999616731887 -6.810965873917 0.9999616731887 -6.810965873917 0.0081629521848 83.224763584878
0.398000000000000 0.0082039812975 83.190361813060 0.9999613114625 -6.845363681407 0.9999613114625 -6.845363681407 0.0082039894844 83.190360417749
0.400000000000000 0.0082450156157 83.155958705444 0.9999609480729 -6.879761462910 0.9999609480729 -6.879761462910 0.0082450237401 83.155957302482
0.402000000000000 0.0082860468762 83.121555649531 0.9999605830203 -6.914159218320 0.9999605830203 -6.914159218320 0.0082860549372 83.121554239552
0.404000000000000 0.0083270750644 83.087152645790 0.9999602163054 -6.948556947532 0.9999602163054 -6.948556947532 0.0083270830610 83.087151229444
0.406000000000000 0.0083681001656 83.052749694677 0.9999598479287 -6.982954650440 0.9999598479287 -6.982954650440 0.0083681080970 83.052748272602
0.408000000000000 0.0084091221651 83.018346796650 0.9999594778908 -7.017352326939 0.9999594778908 -7.017352326939 0.0084091300304 83.018345369476
0.410000000000000 0.0084501410483 82.983943952136 0.9999591061922 -7.051749976923 0.9999591061922 -7.051749976923 0.0084501488467 82.983942520499
0.412000000000000 0.0084911568006 82.949541161555 0.9999587328336 -7.086147600287 0.9999587328336 -7.086147600287 0.0084911645312 82.949539726083
0.414000000000000 0.0085321694073 82.915138425314 0.9999583578155 -7.120545196926 0.9999583578155 -7.120545196926 0.0085321770693 82.915136986648
0.416000000000000 0.0085731788537 82.880735743822 0.9999579811386 -7.154942766733 0.9999579811386 -7.154942766733 0.0085731864463 82.880734302574
0.418000000000000 0.0086141851253 82.846333117460 0.9999576028033 -7.189340309604 0.9999576028033 -7.189340309604 0.0086141926476 82.846331674252
0.420000000000000 0.0086551882073 82.811930546602 0.9999572228102 -7.223737825434 0.9999572228102 -7.223737825434 0.0086551956586 82.811929102064
0.422000000000000 0.0086961880851 82.777528031615 0.9999568411600 -7.258135314116 0.9999568411600 -7.258135314116 0.0086961954646 82.777526586356
0.424000000000000 0.0087371847441 82.743125572850 0.9999564578532 -7.292532775546 0.9999564578532 -7.292532775546 0.0087371920509 82.743124127490
0.426000000000000 0.0087781781695 82.708723170652 0.9999560728904 -7.326930209617 0.9999560728904 -7.326930209617 0.0087781854030 82.708721725796
0.428000000000000 0.0088191683469 82.674320825356 0.9999556862723 -7.361327616226 0.9999556862723 -7.361327616226 0.0088191755062 82.674319381622
0.430000000000000 0.0088601552615 82.639918537289 0.9999552979993 -7.395724995265 0.9999552979993 -7.395724995265 0.0088601623459 82.639917095271
0.432000000000000 0.0089011388986 82.605516306763 0.9999549080721 -7.430122346631 0.9999549080721 -7.430122346631 0.0089011459075 82.605514867065
0.434000000000000 0.0089421192437 82.571114134079 0.9999545164913 -7.464519670217 0.9999545164913 -7.464519670217 0.0089421261762 82.571112697307
0.436000000000000 0.0089830962820 82.536712019542 0.9999541232574 -7.498916965919 0.9999541232574 -7.498916965919 0.0089831031375 82.536710586285
0.438000000000000 0.0090240699990 82.502309963441 0.9999537283712 -7.533314233630 0.9999537283712 -7.533314233630 0.0090240767767 82.502308534286
0.440000000000000 0.0090650403800 82.467907966045 0.9999533318331 -7.567711473247 0.9999533318331 -7.567711473247 0.0090650470793 82.467906541584
0.442000000000000 0.0091060074103 82.433506027637 0.9999529336438 -7.602108684662 0.9999529336438 -7.602108684662 0.0091060140305 82.433504608451
0.444000000000000 0.0091469710753 82.399104148464 0.9999525338038 -7.636505867772 0.9999525338038 -7.636505867772 0.0091469776157 82.399102735138
0.446000000000000 0.0091879313604 82.364702328789 0.9999521323139 -7.670903022471 0.9999521323139 -7.670903022471 0.0091879378204 82.364700921905
0.448000000000000 0.0092288882509 82.330300568865 0.9999517291746 -7.705300148654 0.9999517291746 -7.705300148654 0.0092288946298 82.330299168988
0.450000000000000 0.0092698417322 82.295898868924 0.9999513243864 -7.739697246214 0.9999513243864 -7.739697246214 0.0092698480294 82.295897476632
0.452000000000000 0.0093107917896 82.261497229204 0.9999509179501 -7.774094315048 0.9999509179501 -7.774094315048 0.0093107980044 82.261495845053
0.454000000000000 0.0093517384084 82.227095649921 0.9999505098663 -7.808491355051 0.9999505098663 -7.808491355051 0.0093517445403 82.227094274482
0.456000000000000 0.0093926815742 82.192694131304 0.9999501001354 -7.842888366115 0.9999501001354 -7.842888366115 0.0093926876225 82.192692765128
0.458000000000000 0.0094336212721 82.158292673553 0.9999496887583 -7.877285348138 0.9999496887583 -7.877285348138 0.0094336272363 82.158291317207
0.460000000000000 0.0094745574876 82.123891276881 0.9999492757354 -7.911682301012 0.9999492757354 -7.911682301012 0.0094745633671 82.123889930901
0.462000000000000 0.0095154902060 82.089489941482 0.9999488610675 -7.946079224634 0.9999488610675 -7.946079224634 0.0095154960002 82.089488606425
0.464000000000000 0.0095564194127 82.055088667546 0.9999484447550 -7.980476118899 0.9999484447550 -7.980476118899 0.0095564251210 82.055087343957
0.466000000000000 0.0095973450931 82.020687455270 0.9999480267988 -8.014872983700 0.9999480267988 -8.014872983700 0.0095973507150 82.020686143677
0.468000000000000 0.0096382672324 81.986286304822 0.9999476071993 -8.049269818933 0.9999476071993 -8.049269818933 0.0096382727674 81.986285005766
0.470000000000000 0.0096791858162 81.951885216380 0.9999471859572 -8.083666624493 0.9999471859572 -8.083666624493 0.0096791912636 81.951883930390
0.472000000000000 0.0097201008296 81.917484190109 0.9999467630732 -8.118063400274 0.9999467630732 -8.118063400274 0.0097201061890 81.917482917713
0.474000000000000 0.0097610122581 81.883083226177 0.9999463385479 -8.152460146172 0.9999463385479 -8.152460146172 0.0097610175291 81.883081967896
0.476000000000000 0.0098019200872 81.848682324731 0.9999459123819 -8.186856862082 0.9999459123819 -8.186856862082 0.0098019252691 81.848681081086
0.478000000000000 0.0098428243020 81.814281485938 0.9999454845758 -8.221253547898 0.9999454845758 -8.221253547898 0.0098428293944 81.814280257439
0.480000000000000 0.0098837248880 81.779880709931 0.9999450551304 -8.255650203516 0.9999450551304 -8.255650203516 0.0098837298904 81.779879497089
0.482000000000000 0.0099246218305 81.745479996858 0.9999446240461 -8.290046828830 0.9999446240461 -8.290046828830 0.0099246267425 81.745478800179
0.484000000000000 0.0099655151150 81.711079346856 0.9999441913238 -8.324443423736 0.9999441913238 -8.324443423736 0.0099655199361 81.711078166840
0.486000000000000 0.0100064047267 81.676678760055 0.9999437569639 -8.358839988128 0.9999437569639 -8.358839988128 0.0100064094564 81.676677597199
0.488000000000000 0.0100472906511 81.642278236577 0.9999433209673 -8.393236521902 0.9999433209673 -8.393236521902 0.0100472952890 81.642277091379
0.490000000000000 0.0100881728735 81.607877776553 0.9999428833344 -8.427633024952 0.9999428833344 -8.427633024952 0.0100881774192 81.607876649497
0.492000000000000 0.0101290513793 81.573477380097 0.9999424440660 -8.462029497174 0.9999424440660 -8.462029497174 0.0101290558323 81.573476271666
0.494000000000000 0.0101699261538 81.539077047326 0.9999420031628 -8.496425938462 0.9999420031628 -8.496425938462 0.0101699305138 81.539075958001
0.496000000000000 0.0102107971825 81.504676778345 0.9999415606253 -8.530822348712 0.9999415606253 -8.530822348712 0.0102108014490 81.504675708599
0.498000000000000 0.0102516644506 81.470276573264 0.9999411164542 -8.565218727820 0.9999411164542 -8.565218727820 0.0102516686233 81.470275523565
0.500000000000000 0.0102925279436 81.435876432182 0.9999406706503 -8.599615075679 0.9999406706503 -8.599615075679 0.0102925320221 81.435875402998
0.502000000000000 0.0103333876468 81.401476355191 0.9999402232141 -8.634011392185 0.9999402232141 -8.634011392185 0.0103333916307 81.401475346988
0.504000000000000 0.0103742435457 81.367076342391 0.9999397741463 -8.668407677234 0.9999397741463 -8.668407677234 0.0103742474345 81.367075355625