! Sonnet Data File
! From: em Version : 19.52.2025
! From Project: CPW
! Data is De-embedded 
! Data File Written: 02/24/2026 12:47:39
!< HDATE 02/24/2026 12:38:38
!< MDATE 02/24/2026 12:38:38
!< PARAMS
!< Lk = 0.4
!< END PARAMS
# GHZ S MA R 50.00000
0.100000000000000 0.0036268214070 88.210706747098 0.9999921483537 -1.809420831517 0.9999921483543 -1.809420831524 0.0036268214069 88.210706765253
0.102000000000000 0.0036993814664 88.175066439603 0.9999918748078 -1.845611731087 0.9999918748078 -1.845611731087 0.0036993892084 88.174762822252
0.104000000000000 0.0037719400542 88.139397585052 0.9999915957639 -1.881802613909 0.9999915957639 -1.881802613909 0.0037719554166 88.138805989507
0.106000000000000 0.0038444971407 88.103701827157 0.9999913112222 -1.917993479174 0.9999913112222 -1.917993479174 0.0038445199949 88.102836984486
0.108000000000000 0.0039170526951 88.067980703709 0.9999910211846 -1.954184326449 0.9999910211846 -1.954184326449 0.0039170829134 88.066856505931
0.110000000000000 0.0039896066863 88.032235640560 0.9999907256527 -1.990375155298 0.9999907256527 -1.990375155298 0.0039896441424 88.030865201707
0.112000000000000 0.0040621590835 87.996467961603 0.9999904246282 -2.026565965288 0.9999904246282 -2.026565965288 0.0040622036520 87.994863673343
0.114000000000000 0.0041347098556 87.960678897688 0.9999901181130 -2.062756755986 0.9999901181130 -2.062756755986 0.0041347614123 87.958852480134
0.116000000000000 0.0042072589719 87.924869594664 0.9999898061089 -2.098947526959 0.9999898061089 -2.098947526959 0.0042073173935 87.922832142721
0.118000000000000 0.0042798064013 87.889041120676 0.9999894886175 -2.135138277773 0.9999894886175 -2.135138277773 0.0042798715658 87.886803146404
0.120000000000000 0.0043523521131 87.853194472459 0.9999891656408 -2.171329007997 0.9999891656408 -2.171329007997 0.0043524238994 87.850765944100
0.122000000000000 0.0044248960762 87.817330581369 0.9999888371804 -2.207519717199 0.9999888371804 -2.207519717199 0.0044249743645 87.814720958979
0.124000000000000 0.0044974382599 87.781450318577 0.9999885032383 -2.243710404948 0.9999885032383 -2.243710404948 0.0044975229312 87.778668586868
0.126000000000000 0.0045699786333 87.745554499815 0.9999881638161 -2.279901070813 0.9999881638161 -2.279901070813 0.0045700695697 87.742609198428
0.128000000000000 0.0046425171655 87.709643889837 0.9999878189158 -2.316091714362 0.9999878189158 -2.316091714362 0.0046426142503 87.706543141115
0.130000000000000 0.0047150538257 87.673719206179 0.9999874685391 -2.352282335164 0.9999874685391 -2.352282335164 0.0047151569432 87.670470740979
0.132000000000000 0.0047875885830 87.637781122870 0.9999871126878 -2.388472932793 0.9999871126878 -2.388472932793 0.0047876976184 87.634392304262
0.134000000000000 0.0048601214067 87.601830273607 0.9999867513639 -2.424663506815 0.9999867513639 -2.424663506815 0.0048602362464 87.598308118901
0.136000000000000 0.0049326522659 87.565867254740 0.9999863845690 -2.460854056803 0.9999863845690 -2.460854056803 0.0049327727972 87.562218455877
0.138000000000000 0.0050051811298 87.529892628001 0.9999860123052 -2.497044582327 0.9999860123052 -2.497044582327 0.0050053072411 87.526123570401
0.140000000000000 0.0050777079677 87.493906922936 0.9999856345742 -2.533235082960 0.9999856345742 -2.533235082960 0.0050778395483 87.490023703111
0.142000000000000 0.0051502327487 87.457910639216 0.9999852513779 -2.569425558273 0.9999852513779 -2.569425558273 0.0051503696891 87.453919081035
0.144000000000000 0.0052227554421 87.421904248688 0.9999848627181 -2.605616007838 0.9999848627181 -2.605616007838 0.0052228976337 87.417809918563
0.146000000000000 0.0052952760172 87.385888197286 0.9999844685968 -2.641806431229 0.9999844685968 -2.641806431229 0.0052954233523 87.381696418343
0.148000000000000 0.0053677944431 87.349862906754 0.9999840690158 -2.677996828018 0.9999840690158 -2.677996828018 0.0053679468152 87.345578771997
0.150000000000000 0.0054403106891 87.313828776349 0.9999836639770 -2.714187197778 0.9999836639770 -2.714187197778 0.0054404679925 87.309457160945
0.152000000000000 0.0055128247245 87.277786184212 0.9999832534823 -2.750377540083 0.9999832534823 -2.750377540083 0.0055129868547 87.273331757015
0.154000000000000 0.0055853365187 87.241735488798 0.9999828375336 -2.786567854508 0.9999828375336 -2.786567854508 0.0055855033718 87.237202723100
0.156000000000000 0.0056578460407 87.205677030129 0.9999824161327 -2.822758140627 0.9999824161327 -2.822758140627 0.0056580175142 87.201070213693
0.158000000000000 0.0057303532601 87.169611130973 0.9999819892817 -2.858948398014 0.9999819892817 -2.858948398014 0.0057305292522 87.164934375479
0.160000000000000 0.0058028581460 87.133538097893 0.9999815569824 -2.895138626245 0.9999815569824 -2.895138626245 0.0058030385560 87.128795347750
0.162000000000000 0.0058753606677 87.097458222278 0.9999811192368 -2.931328824897 0.9999811192368 -2.931328824897 0.0058755453958 87.092653262926
0.164000000000000 0.0059478607947 87.061371781232 0.9999806760467 -2.967518993544 0.9999806760467 -2.967518993544 0.0059480497420 87.056508246941
0.166000000000000 0.0060203584963 87.025279038494 0.9999802274142 -3.003709131762 0.9999802274142 -3.003709131762 0.0060205515649 87.020360419635
0.168000000000000 0.0060928537417 86.989180245166 0.9999797733411 -3.039899239130 0.9999797733411 -3.039899239130 0.0060930508347 86.984209895119
0.170000000000000 0.0061653465004 86.953075640501 0.9999793138294 -3.076089315224 0.9999793138294 -3.076089315224 0.0061655475217 86.948056782126
0.172000000000000 0.0062378367417 86.916965452575 0.9999788488811 -3.112279359620 0.9999788488811 -3.112279359620 0.0062380415962 86.911901184325
0.174000000000000 0.0063103244349 86.880849898949 0.9999783784982 -3.148469371899 0.9999783784982 -3.148469371899 0.0063105330285 86.875743200570
0.176000000000000 0.0063828095495 86.844729187235 0.9999779026825 -3.184659351636 0.9999779026825 -3.184659351636 0.0063830217889 86.839582925216
0.178000000000000 0.0064552920549 86.808603515675 0.9999774214362 -3.220849298412 0.9999774214362 -3.220849298412 0.0064555078478 86.803420448369
0.180000000000000 0.0065277719204 86.772473073659 0.9999769347611 -3.257039211805 0.9999769347611 -3.257039211805 0.0065279911753 86.767255856103
0.182000000000000 0.0066002491154 86.736338042209 0.9999764426592 -3.293229091394 0.9999764426592 -3.293229091394 0.0066004717420 86.731089230696
0.184000000000000 0.0066727236095 86.700198594446 0.9999759451326 -3.329418936759 0.9999759451326 -3.329418936759 0.0066729495180 86.694920650828
0.186000000000000 0.0067451953719 86.664054895992 0.9999754421832 -3.365608747480 0.9999754421832 -3.365608747480 0.0067454244737 86.658750191789
0.188000000000000 0.0068176643722 86.627907105388 0.9999749338131 -3.401798523137 0.9999749338131 -3.401798523137 0.0068178965794 86.622577925635
0.190000000000000 0.0068901305798 86.591755374456 0.9999744200242 -3.437988263312 0.9999744200242 -3.437988263312 0.0068903658054 86.586403921378
0.192000000000000 0.0069625939641 86.555599848655 0.9999739008187 -3.474177967585 0.9999739008187 -3.474177967585 0.0069628321222 86.550228245143
0.194000000000000 0.0070350544947 86.519440667417 0.9999733761984 -3.510367635538 0.9999733761984 -3.510367635538 0.0070352955000 86.514050960305
0.196000000000000 0.0071075121409 86.483277964426 0.9999728461655 -3.546557266753 0.9999728461655 -3.546557266753 0.0071077559092 86.477872127644
0.198000000000000 0.0071799668723 86.447111867939 0.9999723107220 -3.582746860812 0.9999723107220 -3.582746860812 0.0071802133201 86.441691805464
0.200000000000000 0.0072524186583 86.410942501050 0.9999717698699 -3.618936417298 0.9999717698699 -3.618936417298 0.0072526677031 86.405510049723
0.202000000000000 0.0073248674685 86.374769981929 0.9999712236112 -3.655125935794 0.9999712236112 -3.655125935794 0.0073251190286 86.369326914144
0.204000000000000 0.0073973132724 86.338594424092 0.9999706719481 -3.691315415882 0.9999706719481 -3.691315415882 0.0073975672668 86.333142450338
0.206000000000000 0.0074697560394 86.302415936584 0.9999701148826 -3.727504857148 0.9999701148826 -3.727504857148 0.0074700123883 86.296956707895
0.208000000000000 0.0075421957392 86.266234624248 0.9999695524168 -3.763694259174 0.9999695524168 -3.763694259174 0.0075424543633 86.260769734471
0.210000000000000 0.0076146323412 86.230050587893 0.9999689845527 -3.799883621545 0.9999689845527 -3.799883621545 0.0076148931622 86.224581575905
0.212000000000000 0.0076870658150 86.193863924468 0.9999684112924 -3.836072943847 0.9999684112924 -3.836072943847 0.0076873287555 86.188392276292
0.214000000000000 0.0077594961302 86.157674727288 0.9999678326381 -3.872262225664 0.9999678326381 -3.872262225664 0.0077597611134 86.152201878057
0.216000000000000 0.0078319232562 86.121483086171 0.9999672485917 -3.908451466582 0.9999672485917 -3.908451466582 0.0078321902064 86.116010422055
0.218000000000000 0.0079043471628 86.085289087591 0.9999666591555 -3.944640666186 0.9999666591555 -3.944640666186 0.0079046160050 86.079817947600
0.220000000000000 0.0079767678195 86.049092814863 0.9999660643314 -3.980829824063 0.9999660643314 -3.980829824063 0.0079770384794 86.043624492595
0.222000000000000 0.0080491851958 86.012894348259 0.9999654641217 -4.017018939800 0.9999654641217 -4.017018939800 0.0080494576000 86.007430093547
0.224000000000000 0.0081215992613 85.976693765147 0.9999648585284 -4.053208012983 0.9999648585284 -4.053208012983 0.0081218733374 85.971234785636
0.226000000000000 0.0081940099858 85.940491140131 0.9999642475537 -4.089397043201 0.9999642475537 -4.089397043201 0.0081942856619 85.935038602809
0.228000000000000 0.0082664173387 85.904286545158 0.9999636311997 -4.125586030040 0.9999636311997 -4.125586030040 0.0082666945439 85.898841577788
0.230000000000000 0.0083388212897 85.868080049650 0.9999630094685 -4.161774973089 0.9999630094685 -4.161774973089 0.0083390999538 85.862643742157
0.232000000000000 0.0084112218085 85.831871720591 0.9999623823622 -4.197963871936 0.9999623823622 -4.197963871936 0.0084115018621 85.826445126388
0.234000000000000 0.0084836188647 85.795661622655 0.9999617498831 -4.234152726169 0.9999617498831 -4.234152726169 0.0084839002392 85.790245759908
0.236000000000000 0.0085560124280 85.759449818277 0.9999611120333 -4.270341535379 0.9999611120333 -4.270341535379 0.0085562950555 85.754045671124
0.238000000000000 0.0086284024679 85.723236367788 0.9999604688148 -4.306530299154 0.9999604688148 -4.306530299154 0.0086286862815 85.717844887477
0.240000000000000 0.0087007889543 85.687021329456 0.9999598202300 -4.342719017084 0.9999598202300 -4.342719017084 0.0087010738877 85.681643435496
0.242000000000000 0.0087731718567 85.650804759597 0.9999591662810 -4.378907688760 0.9999591662810 -4.378907688760 0.0087734578443 85.645441340808
0.244000000000000 0.0088455511448 85.614586712644 0.9999585069699 -4.415096313773 0.9999585069699 -4.415096313773 0.0088458381220 85.609238628179
0.246000000000000 0.0089179267884 85.578367241255 0.9999578422989 -4.451284891712 0.9999578422989 -4.451284891712 0.0089182146911 85.573035321577
0.248000000000000 0.0089902987572 85.542146396326 0.9999571722702 -4.487473422170 0.9999571722702 -4.487473422170 0.0089905875222 85.536831444170
0.250000000000000 0.0090626670208 85.505924227118 0.9999564968861 -4.523661904738 0.9999564968861 -4.523661904738 0.0090629565856 85.500627018381
0.252000000000000 0.0091350315490 85.469700781294 0.9999558161486 -4.559850339008 0.9999558161486 -4.559850339008 0.0091353218519 85.464422065906
0.254000000000000 0.0092073923115 85.433476104977 0.9999551300601 -4.596038724573 0.9999551300601 -4.596038724573 0.0092076832916 85.428216607754
0.256000000000000 0.0092797492781 85.397250242834 0.9999544386228 -4.632227061024 0.9999544386228 -4.632227061024 0.0092800408750 85.392010664245
0.258000000000000 0.0093521024186 85.361023238112 0.9999537418388 -4.668415347956 0.9999537418388 -4.668415347956 0.0093523945727 85.355804255081
0.260000000000000 0.0094244517026 85.324795132692 0.9999530397103 -4.704603584961 0.9999530397103 -4.704603584961 0.0094247443553 85.319597399340
0.262000000000000 0.0094967970999 85.288565967155 0.9999523322397 -4.740791771634 0.9999523322397 -4.740791771634 0.0094970901930 85.283390115495
0.264000000000000 0.0095691385804 85.252335780829 0.9999516194291 -4.776979907568 0.9999516194291 -4.776979907568 0.0095694320566 85.247182421459
0.266000000000000 0.0096414761138 85.216104611827 0.9999509012808 -4.813167992359 0.9999509012808 -4.813167992359 0.0096417699164 85.210974334591
0.268000000000000 0.0097138096698 85.179872497086 0.9999501777970 -4.849356025600 0.9999501777970 -4.849356025600 0.0097141037429 85.174765871721
0.270000000000000 0.0097861392184 85.143639472444 0.9999494489801 -4.885544006888 0.9999494489801 -4.885544006888 0.0097864335068 85.138557049174
0.272000000000000 0.0098584647293 85.107405572634 0.9999487148322 -4.921731935817 0.9999487148322 -4.921731935817 0.0098587591784 85.102347882780
0.274000000000000 0.0099307861723 85.071170831363 0.9999479753555 -4.957919811984 0.9999479753555 -4.957919811984 0.0099310807284 85.066138387891
0.276000000000000 0.0100031035173 85.034935281329 0.9999472305525 -4.994107634985 0.9999472305525 -4.994107634985 0.0100033981271 85.029928579412
0.278000000000000 0.0100754167341 84.998698954259 0.9999464804254 -5.030295404416 0.9999464804254 -5.030295404416 0.0100757113452 84.993718471808
0.280000000000000 0.0101477257925 84.962461880958 0.9999457249763 -5.066483119875 0.9999457249763 -5.066483119875 0.0101480203532 84.957508079112
0.282000000000000 0.0102200306625 84.926224091314 0.9999449642078 -5.102670780958 0.9999449642078 -5.102670780958 0.0102203251216 84.921297414962
0.284000000000000 0.0102923313138 84.889985614370 0.9999441981219 -5.138858387264 0.9999441981219 -5.138858387264 0.0102926256210 84.885086492582
0.286000000000000 0.0103646277163 84.853746478307 0.9999434267211 -5.175045938391 0.9999434267211 -5.175045938391 0.0103649218219 84.848875324833
0.288000000000000 0.0104369198399 84.817506710507 0.9999426500076 -5.211233433936 0.9999426500076 -5.211233433936 0.0104372136948 84.812663924196
0.290000000000000 0.0105092076546 84.781266337573 0.9999418679837 -5.247420873499 0.9999418679837 -5.247420873499 0.0105095012103 84.776452302814
0.292000000000000 0.0105814911301 84.745025385359 0.9999410806518 -5.283608256678 0.9999410806518 -5.283608256678 0.0105817843390 84.740240472469
0.294000000000000 0.0106537702364 84.708783878974 0.9999402880142 -5.319795583074 0.9999402880142 -5.319795583074 0.0106540630514 84.704028444623
0.296000000000000 0.0107260449435 84.672541842838 0.9999394900732 -5.355982852285 0.9999394900732 -5.355982852285 0.0107263373181 84.667816230418
0.298000000000000 0.0107983152212 84.636299300680 0.9999386868311 -5.392170063912 0.9999386868311 -5.392170063912 0.0107986071096 84.631603840678
0.300000000000000 0.0108705810395 84.600056275582 0.9999378782904 -5.428357217556 0.9999378782904 -5.428357217556 0.0108708723966 84.595391285940
0.302000000000000 0.0109428423683 84.563812789981 0.9999370644532 -5.464544312817 0.9999370644532 -5.464544312817 0.0109431331496 84.559178576446
0.304000000000000 0.0110150991776 84.527568865702 0.9999362453220 -5.500731349297 0.9999362453220 -5.500731349297 0.0110153893391 84.522965722159
0.306000000000000 0.0110873514373 84.491324523979 0.9999354208992 -5.536918326596 0.9999354208992 -5.536918326596 0.0110876409359 84.486752732772
0.308000000000000 0.0111595991173 84.455079785462 0.9999345911871 -5.573105244318 0.9999345911871 -5.573105244318 0.0111598879104 84.450539617721
0.310000000000000 0.0112318421878 84.418834670253 0.9999337561880 -5.609292102063 0.9999337561880 -5.609292102063 0.0112321302333 84.414326386183
0.312000000000000 0.0113040806185 84.382589197898 0.9999329159043 -5.645478899435 0.9999329159043 -5.645478899435 0.0113043678752 84.378113047086
0.314000000000000 0.0113763143797 84.346343387445 0.9999320703385 -5.681665636036 0.9999320703385 -5.681665636036 0.0113766008066 84.341899609138
0.316000000000000 0.0114485434411 84.310097257429 0.9999312194929 -5.717852311471 0.9999312194929 -5.717852311471 0.0114488289983 84.305686080799
0.318000000000000 0.0115207677729 84.273850825877 0.9999303633699 -5.754038925341 0.9999303633699 -5.754038925341 0.0115210524207 84.269472470321
0.320000000000000 0.0115929873450 84.237604110366 0.9999295019718 -5.790225477252 0.9999295019718 -5.790225477252 0.0115932710446 84.233258785729
0.322000000000000 0.0116652021276 84.201357127995 0.9999286353011 -5.826411966807 0.9999286353011 -5.826411966807 0.0116654848405 84.197045034846
0.324000000000000 0.0117374120905 84.165109895434 0.9999277633603 -5.862598393612 0.9999277633603 -5.862598393612 0.0117376937790 84.160831225292
0.326000000000000 0.0118096172039 84.128862428906 0.9999268861516 -5.898784757271 0.9999268861516 -5.898784757271 0.0118098978309 84.124617364486
0.328000000000000 0.0118818174378 84.092614744222 0.9999260036775 -5.934971057389 0.9999260036775 -5.934971057389 0.0118820969668 84.088403459672
0.330000000000000 0.0119540127623 84.056366856790 0.9999251159405 -5.971157293572 0.9999251159405 -5.971157293572 0.0119542911572 84.052189517888
0.332000000000000 0.0120262031475 84.020118781613 0.9999242229430 -6.007343465427 0.9999242229430 -6.007343465427 0.0120264803728 84.015975546007
0.334000000000000 0.0120983885633 83.983870533337 0.9999233246874 -6.043529572559 0.9999233246874 -6.043529572559 0.0120986645843 83.979761550724
0.336000000000000 0.0121705689799 83.947622126203 0.9999224211761 -6.079715614575 0.9999224211761 -6.079715614575 0.0121708437624 83.943547538571
0.338000000000000 0.0122427443674 83.911373574116 0.9999215124116 -6.115901591082 0.9999215124116 -6.115901591082 0.0122430178777 83.907333515913
0.340000000000000 0.0123149146959 83.875124890628 0.9999205983963 -6.152087501689 0.9999205983963 -6.152087501689 0.0123151869008 83.871119488954
0.342000000000000 0.0123870799355 83.838876088948 0.9999196791328 -6.188273346001 0.9999196791328 -6.188273346001 0.0123873508024 83.834905463750
0.344000000000000 0.0124592400563 83.802627181959 0.9999187546234 -6.224459123628 0.9999187546234 -6.224459123628 0.0124595095533 83.798691446205
0.346000000000000 0.0125313950285 83.766378182216 0.9999178248706 -6.260644834178 0.9999178248706 -6.260644834178 0.0125316631240 83.762477442071
0.348000000000000 0.0126035448221 83.730129101981 0.9999168898769 -6.296830477259 0.9999168898769 -6.296830477259 0.0126038114853 83.726263456972
0.350000000000000 0.0126756894073 83.693879953205 0.9999159496448 -6.333016052480 0.9999159496448 -6.333016052480 0.0126759546078 83.690049496388
0.352000000000000 0.0127478287543 83.657630747531 0.9999150041767 -6.369201559452 0.9999150041767 -6.369201559452 0.0127480924623 83.653835565665
0.354000000000000 0.0128199628333 83.621381496349 0.9999140534752 -6.405386997784 0.9999140534752 -6.405386997784 0.0128202250194 83.617621670021
0.356000000000000 0.0128920916143 83.585132210743 0.9999130975427 -6.441572367085 0.9999130975427 -6.441572367085 0.0128923522498 83.581407814552
0.358000000000000 0.0129642150675 83.548882901549 0.9999121363817 -6.477757666967 0.9999121363817 -6.477757666967 0.0129644741243 83.545194004230
0.360000000000000 0.0130363331633 83.512633579326 0.9999111699948 -6.513942897040 0.9999111699948 -6.513942897040 0.0130365906135 83.508980243905
0.362000000000000 0.0131084458716 83.476384254389 0.9999101983845 -6.550128056915 0.9999101983845 -6.550128056915 0.0131087016882 83.472766538312
0.364000000000000 0.0131805531629 83.440134936799 0.9999092215532 -6.586313146204 0.9999092215532 -6.586313146204 0.0131808073190 83.436552892079
0.366000000000000 0.0132526550071 83.403885636385 0.9999082395035 -6.622498164518 0.9999082395035 -6.622498164518 0.0132529074768 83.400339309728
0.368000000000000 0.0133247513746 83.367636362735 0.9999072522378 -6.658683111470 0.9999072522378 -6.658683111470 0.0133250021322 83.364125795658
0.370000000000000 0.0133968422357 83.331387125204 0.9999062597589 -6.694867986672 0.9999062597589 -6.694867986672 0.0133970912559 83.327912354177
0.372000000000000 0.0134689275604 83.295137932943 0.9999052620691 -6.731052789737 0.9999052620691 -6.731052789737 0.0134691748187 83.291698989496
0.374000000000000 0.0135410073191 83.258888794872 0.9999042591710 -6.767237520277 0.9999042591710 -6.767237520277 0.0135412527914 83.255485705722
0.376000000000000 0.0136130814820 83.222639719705 0.9999032510672 -6.803422177908 0.9999032510672 -6.803422177908 0.0136133251446 83.219272506868
0.378000000000000 0.0136851500194 83.186390715955 0.9999022377602 -6.839606762241 0.9999022377602 -6.839606762241 0.0136853918492 83.183059396850
0.380000000000000 0.0137572129015 83.150141791933 0.9999012192526 -6.875791272892 0.9999012192526 -6.875791272892 0.0137574528758 83.146846379501
0.382000000000000 0.0138292700987 83.113892955757 0.9999001955469 -6.911975709475 0.9999001955469 -6.911975709475 0.0138295081953 83.110633458566
0.384000000000000 0.0139013215811 83.077644215356 0.9998991666457 -6.948160071604 0.9998991666457 -6.948160071604 0.0139015577784 83.074420637697
0.386000000000000 0.0139733673191 83.041395578473 0.9998981325516 -6.984344358895 0.9998981325516 -6.984344358895 0.0139736015959 83.038207920469
0.388000000000000 0.0140454072830 83.005147052679 0.9998970932672 -7.020528570964 0.9998970932672 -7.020528570964 0.0140456396185 83.001995310375
0.390000000000000 0.0141174414431 82.968898645364 0.9998960487950 -7.056712707425 0.9998960487950 -7.056712707425 0.0141176718170 82.965782810827
0.392000000000000 0.0141894697697 82.932650363749 0.9998949991376 -7.092896767896 0.9998949991376 -7.092896767896 0.0141896981622 82.929570425161
0.394000000000000 0.0142614922331 82.896402214893 0.9998939442977 -7.129080751993 0.9998939442977 -7.129080751993 0.0142617186249 82.893358156634
0.396000000000000 0.0143335088036 82.860154205689 0.9998928842778 -7.165264659332 0.9998928842778 -7.165264659332 0.0143337331759 82.857146008440
0.398000000000000 0.0144055194517 82.823906342872 0.9998918190805 -7.201448489530 0.9998918190805 -7.201448489530 0.0144057417860 82.820933983692
0.400000000000000 0.0144775241476 82.787658633027 0.9998907487084 -7.237632242206 0.9998907487084 -7.237632242206 0.0144777444259 82.784722085436
0.402000000000000 0.0145495228617 82.751411082590 0.9998896731642 -7.273815916977 0.9998896731642 -7.273815916977 0.0145497410665 82.748510316652
0.404000000000000 0.0146215155643 82.715163697848 0.9998885924505 -7.309999513461 0.9998885924505 -7.309999513461 0.0146217316786 82.712298680248
0.406000000000000 0.0146935022259 82.678916484943 0.9998875065698 -7.346183031276 0.9998875065698 -7.346183031276 0.0146937162330 82.676087179078
0.408000000000000 0.0147654828168 82.642669449889 0.9998864155249 -7.382366470042 0.9998864155249 -7.382366470042 0.0147656947005 82.639875815924
0.410000000000000 0.0148374573074 82.606422598554 0.9998853193184 -7.418549829377 0.9998853193184 -7.418549829377 0.0148376670520 82.603664593511
0.412000000000000 0.0149094256681 82.570175936671 0.9998842179528 -7.454733108901 0.9998842179528 -7.454733108901 0.0149096332582 82.567453514501
0.414000000000000 0.0149813878692 82.533929469858 0.9998831114309 -7.490916308234 0.9998831114309 -7.490916308234 0.0149815932900 82.531242581499
0.416000000000000 0.0150533438813 82.497683203595 0.9998819997553 -7.527099426995 0.9998819997553 -7.527099426995 0.0150535471182 82.495031797053
0.418000000000000 0.0151252936747 82.461437143242 0.9998808829287 -7.563282464806 0.9998808829287 -7.563282464806 0.0151254947137 82.458821163656
0.420000000000000 0.0151972372198 82.425191294041 0.9998797609537 -7.599465421287 0.9998797609537 -7.599465421287 0.0151974360473 82.422610683750
0.422000000000000 0.0152691744872 82.388945661120 0.9998786338330 -7.635648296058 0.9998786338330 -7.635648296058 0.0152693710899 82.386400359712
0.424000000000000 0.0153411054471 82.352700249484 0.9998775015692 -7.671831088743 0.9998775015692 -7.671831088743 0.0153412998123 82.350190193884
0.426000000000000 0.0154130300702 82.316455064034 0.9998763641651 -7.708013798961 0.9998763641651 -7.708013798961 0.0154132221854 82.313980188543
0.428000000000000 0.0154849483268 82.280210109556 0.9998752216233 -7.744196426336 0.9998752216233 -7.744196426336 0.0154851381800 82.277770345924
0.430000000000000 0.0155568601874 82.243965390731 0.9998740739465 -7.780378970489 0.9998740739465 -7.780378970489 0.0155570477671 82.241560668210
0.432000000000000 0.0156287656225 82.207720912144 0.9998729211374 -7.816561431044 0.9998729211374 -7.816561431044 0.0156289509174 82.205351157544
0.434000000000000 0.0157006646025 82.171476678265 0.9998717631987 -7.852743807624 0.9998717631987 -7.852743807624 0.0157008476019 82.169141816014
0.436000000000000 0.0157725570980 82.135232693475 0.9998706001331 -7.888926099851 0.9998706001331 -7.888926099851 0.0157727377914 82.132932645667
0.438000000000000 0.0158444430794 82.098988962049 0.9998694319433 -7.925108307350 0.9998694319433 -7.925108307350 0.0158446214568 82.096723648507
0.440000000000000 0.0159163225174 82.062745488177 0.9998682586320 -7.961290429744 0.9998682586320 -7.961290429744 0.0159164985691 82.060514826496
0.442000000000000 0.0159881953822 82.026502275954 0.9998670802019 -7.997472466658 0.9998670802019 -7.997472466658 0.0159883690991 82.024306181548
0.444000000000000 0.0160600616446 81.990259329376 0.9998658966558 -8.033654417717 0.9998658966558 -8.033654417717 0.0160602330177 81.988097715546
0.446000000000000 0.0161319212751 81.954016652361 0.9998647079964 -8.069836282546 0.9998647079964 -8.069836282546 0.0161320902958 81.951889430321
0.448000000000000 0.0162037742440 81.917774248735 0.9998635142264 -8.106018060769 0.9998635142264 -8.106018060769 0.0162039409044 81.915681327677
0.450000000000000 0.0162756205221 81.881532122240 0.9998623153485 -8.142199752013 0.9998623153485 -8.142199752013 0.0162757848143 81.879473409369
0.452000000000000 0.0163474600799 81.845290276537 0.9998611113656 -8.178381355904 0.9998611113656 -8.178381355904 0.0163476219964 81.843265677123
0.454000000000000 0.0164192928879 81.809048715202 0.9998599022803 -8.214562872067 0.9998599022803 -8.214562872067 0.0164194524218 81.807058132622
0.456000000000000 0.0164911189167 81.772807441737 0.9998586880954 -8.250744300130 0.9998586880954 -8.250744300130 0.0164912760613 81.770850777517
0.458000000000000 0.0165629381368 81.736566459563 0.9998574688136 -8.286925639719 0.9998574688136 -8.286925639719 0.0165630928858 81.734643613427
0.460000000000000 0.0166347505190 81.700325772027 0.9998562444378 -8.323106890461 0.9998562444378 -8.323106890461 0.0166349028663 81.698436641923
0.462000000000000 0.0167065560336 81.664085382399 0.9998550149707 -8.359288051985 0.9998550149707 -8.359288051985 0.0167067059737 81.662229864561
0.464000000000000 0.0167783546515 81.627845293884 0.9998537804150 -8.395469123918 0.9998537804150 -8.395469123918 0.0167785021790 81.626023282852
0.466000000000000 0.0168501463431 81.591605509606 0.9998525407736 -8.431650105888 0.9998525407736 -8.431650105888 0.0168502914531 81.589816898280
0.468000000000000 0.0169219310790 81.555366032628 0.9998512960491 -8.467830997524 0.9998512960491 -8.467830997524 0.0169220737670 81.553610712296
0.470000000000000 0.0169937088300 81.519126865939 0.9998500462445 -8.504011798455 0.9998500462445 -8.504011798455 0.0169938490917 81.517404726321
0.472000000000000 0.0170654795666 81.482888012466 0.9998487913625 -8.540192508309 0.9998487913625 -8.540192508309 0.0170656173980 81.481198941746
0.474000000000000 0.0171372432595 81.446649475067 0.9998475314059 -8.576373126717 0.9998475314059 -8.576373126717 0.0171373786570 81.444993359928
0.476000000000000 0.0172089998793 81.410411256540 0.9998462663775 -8.612553653308 0.9998462663775 -8.612553653308 0.0172091328397 81.408787982202
0.478000000000000 0.0172807493967 81.374173359622 0.9998449962801 -8.648734087712 0.9998449962801 -8.648734087712 0.0172808799170 81.372582809874
0.480000000000000 0.0173524917824 81.337935786982 0.9998437211165 -8.684914429560 0.9998437211165 -8.684914429560 0.0173526198600 81.336377844217
0.482000000000000 0.0174242270069 81.301698541235 0.9998424408895 -8.721094678482 0.9998424408895 -8.721094678482 0.0174243526395 81.300173086487
0.484000000000000 0.0174959550410 81.265461624935 0.9998411556021 -8.757274834110 0.9998411556021 -8.757274834110 0.0174960782266 81.263968537901
0.486000000000000 0.0175676758555 81.229225040579 0.9998398652569 -8.793454896074 0.9998398652569 -8.793454896074 0.0175677965923 81.227764199659
0.488000000000000 0.0176393894209 81.192988790612 0.9998385698568 -8.829634864007 0.9998385698568 -8.829634864007 0.0176395077076 81.191560072933
0.490000000000000 0.0177110957079 81.156752877419 0.9998372694047 -8.865814737541 0.9998372694047 -8.865814737541 0.0177112115436 81.155356158873
0.492000000000000 0.0177827946874 81.120517303328 0.9998359639034 -8.901994516308 0.9998359639034 -8.901994516308 0.0177829080711 81.119152458597
0.494000000000000 0.0178544863299 81.084282070626 0.9998346533557 -8.938174199941 0.9998346533557 -8.938174199941 0.0178545972613 81.082948973210
0.496000000000000 0.0179261706063 81.048047181537 0.9998333377645 -8.974353788072 0.9998333377645 -8.974353788072 0.0179262790851 81.046745703783
0.498000000000000 0.0179978474872 81.011812638240 0.9998320171327 -9.010533280335 0.9998320171327 -9.010533280335 0.0179979535136 81.010542651374
0.500000000000000 0.0180695169434 80.975578442863 0.9998306914631 -9.046712676363 0.9998306914631 -9.046712676363 0.0180696205178 80.974339817009
0.502000000000000 0.0181411789457 80.939344597485 0.9998293607586 -9.082891975791 0.9998293607586 -9.082891975791 0.0181412800687 80.938137201702
0.504000000000000 0.0182128334647 80.903111104137 0.9998280250221 -9.119071178253 0.9998280250221 -9.119071178253 0.0182129321375 80.901934806437