! Sonnet Data File
! From: em Version : 19.52.2025
! From Project: CPW
! Data is De-embedded 
! Data File Written: 02/24/2026 12:47:39
!< HDATE 02/24/2026 12:38:38
!< MDATE 02/24/2026 12:38:38
!< PARAMS
!< Lk = 1
!< END PARAMS
# GHZ S MA R 50.00000
0.100000000000000 0.0055799058093 88.091742358623 0.9999831574243 -1.921340389271 0.9999831574246 -1.921340389274 0.0055799058095 88.091742376394
0.102000000000000 0.0056915108865 88.053361277322 0.9999825055641 -1.959769156337 0.9999825055641 -1.959769156337 0.0056915110365 88.053361590179
0.104000000000000 0.0058031131933 88.014977707521 0.9999818412320 -1.998197874082 0.9999818412320 -1.998197874082 0.0058031134832 88.014978345201
0.106000000000000 0.0059147126750 87.976591809951 0.9999811644260 -2.036626541899 0.9999811644260 -2.036626541899 0.0059147131030 87.976592754956
0.108000000000000 0.0060263092787 87.938203722424 0.9999804751474 -2.075055158821 0.9999804751474 -2.075055158821 0.0060263098430 87.938204958272
0.110000000000000 0.0061379029514 87.899813572791 0.9999797733978 -2.113483723874 0.9999797733978 -2.113483723874 0.0061379036504 87.899815083905
0.112000000000000 0.0062494936404 87.861421479799 0.9999790591787 -2.151912236090 0.9999790591787 -2.151912236090 0.0062494944723 87.861423251488
0.114000000000000 0.0063610812927 87.823027553918 0.9999783324913 -2.190340694498 0.9999783324913 -2.190340694498 0.0063610822558 87.823029572308
0.116000000000000 0.0064726658554 87.784631898049 0.9999775933374 -2.228769098129 0.9999775933374 -2.228769098129 0.0064726669481 87.784634150005
0.118000000000000 0.0065842472756 87.746234608159 0.9999768417184 -2.267197446013 0.9999768417184 -2.267197446013 0.0065842484961 87.746237081253
0.120000000000000 0.0066958255005 87.707835773867 0.9999760776359 -2.305625737180 0.9999760776359 -2.305625737180 0.0066958268472 87.707838456323
0.122000000000000 0.0068074004772 87.669435478969 0.9999753010914 -2.344053970660 0.9999753010914 -2.344053970660 0.0068074019483 87.669438359613
0.124000000000000 0.0069189721528 87.631033801882 0.9999745120866 -2.382482145486 0.9999745120866 -2.382482145486 0.0069189737466 87.631036870124
0.126000000000000 0.0070305404744 87.592630816101 0.9999737106230 -2.420910260688 0.9999737106230 -2.420910260688 0.0070305421893 87.592634061878
0.128000000000000 0.0071421053892 87.554226590571 0.9999728967024 -2.459338315296 0.9999728967024 -2.459338315296 0.0071421072236 87.554230004323
0.130000000000000 0.0072536668443 87.515821190035 0.9999720703263 -2.497766308342 0.9999720703263 -2.497766308342 0.0072536687964 87.515824762675
0.132000000000000 0.0073652247868 87.477414675352 0.9999712314965 -2.536194238859 0.9999712314965 -2.536194238859 0.0073652268551 87.477418398239
0.134000000000000 0.0074767791639 87.439007103790 0.9999703802146 -2.574622105876 0.9999703802146 -2.574622105876 0.0074767813467 87.439010968697
0.136000000000000 0.0075883299227 87.400598529309 0.9999695164825 -2.613049908427 0.9999695164825 -2.613049908427 0.0075883322183 87.400602528397
0.138000000000000 0.0076998770103 87.362189002766 0.9999686403018 -2.651477645543 0.9999686403018 -2.651477645543 0.0076998794172 87.362193128550
0.140000000000000 0.0078114203740 87.323778572141 0.9999677516743 -2.689905316257 0.9999677516743 -2.689905316257 0.0078114228905 87.323782817515
0.142000000000000 0.0079229599608 87.285367282771 0.9999668506019 -2.728332919601 0.9999668506019 -2.728332919601 0.0079229625854 87.285371640933
0.144000000000000 0.0080344957180 87.246955177518 0.9999659370864 -2.766760454607 0.9999659370864 -2.766760454607 0.0080344984489 87.246959641991
0.146000000000000 0.0081460275926 87.208542296915 0.9999650111296 -2.805187920309 0.9999650111296 -2.805187920309 0.0081460304284 87.208546861498
0.148000000000000 0.0082575555319 87.170128679353 0.9999640727334 -2.843615315739 0.9999640727334 -2.843615315739 0.0082575584709 87.170133338133
0.150000000000000 0.0083690794829 87.131714361220 0.9999631218997 -2.882042639932 0.9999631218997 -2.882042639932 0.0083690825237 87.131719108542
0.152000000000000 0.0084805993930 87.093299377021 0.9999621586304 -2.920469891918 0.9999621586304 -2.920469891918 0.0084806025338 87.093304207473
0.154000000000000 0.0085921152092 87.054883759501 0.9999611829274 -2.958897070734 0.9999611829274 -2.958897070734 0.0085921184486 87.054888667917
0.156000000000000 0.0087036268788 87.016467539773 0.9999601947927 -2.997324175412 0.9999601947927 -2.997324175412 0.0087036302151 87.016472521198
0.158000000000000 0.0088151343488 86.978050747400 0.9999591942283 -3.035751204987 0.9999591942283 -3.035751204987 0.0088151377806 86.978055797109
0.160000000000000 0.0089266375666 86.939633410522 0.9999581812362 -3.074178158492 0.9999581812362 -3.074178158492 0.0089266410922 86.939638523972
0.162000000000000 0.0090381364792 86.901215555899 0.9999571558184 -3.112605034962 0.9999571558184 -3.112605034962 0.0090381400972 86.901220728752
0.164000000000000 0.0091496310339 86.862797209049 0.9999561179770 -3.151031833431 0.9999561179770 -3.151031833431 0.0091496347427 86.862802437135
0.166000000000000 0.0092611211779 86.824378394275 0.9999550677141 -3.189458552935 0.9999550677141 -3.189458552935 0.0092611249760 86.824383673606
0.168000000000000 0.0093726068583 86.785959134765 0.9999540050317 -3.227885192508 0.9999540050317 -3.227885192508 0.0093726107442 86.785964461516
0.170000000000000 0.0094840880224 86.747539452653 0.9999529299319 -3.266311751186 0.9999529299319 -3.266311751186 0.0094840919946 86.747544823152
0.172000000000000 0.0095955646174 86.709119369067 0.9999518424170 -3.304738228004 0.9999518424170 -3.304738228004 0.0095955686744 86.709124779796
0.174000000000000 0.0097070365905 86.670698904204 0.9999507424890 -3.343164621997 0.9999507424890 -3.343164621997 0.0097070407308 86.670704351789
0.176000000000000 0.0098185038889 86.632278077383 0.9999496301503 -3.381590932202 0.9999496301503 -3.381590932202 0.0098185081110 86.632283558584
0.178000000000000 0.0099299664598 86.593856907077 0.9999485054029 -3.420017157654 0.9999485054029 -3.420017157654 0.0099299707623 86.593862418787
0.180000000000000 0.0100414242504 86.555435410979 0.9999473682491 -3.458443297391 0.9999473682491 -3.458443297391 0.0100414286319 86.555440950199
0.182000000000000 0.0101528772080 86.517013606021 0.9999462186911 -3.496869350448 0.9999462186911 -3.496869350448 0.0101528816669 86.517019169895
0.184000000000000 0.0102643252799 86.478591508452 0.9999450567314 -3.535295315861 0.9999450567314 -3.535295315861 0.0102643298147 86.478597094218
0.186000000000000 0.0103757684131 86.440169133839 0.9999438823720 -3.573721192669 0.9999438823720 -3.573721192669 0.0103757730225 86.440174738854
0.188000000000000 0.0104872065551 86.401746497123 0.9999426956155 -3.612146979908 0.9999426956155 -3.612146979908 0.0104872112376 86.401752118844
0.190000000000000 0.0105986396529 86.363323612644 0.9999414964640 -3.650572676616 0.9999414964640 -3.650572676616 0.0105986444071 86.363329248627
0.192000000000000 0.0107100676539 86.324900494173 0.9999402849201 -3.688998281831 0.9999402849201 -3.688998281831 0.0107100724784 86.324906142077
0.194000000000000 0.0108214905054 86.286477154960 0.9999390609860 -3.727423794589 0.9999390609860 -3.727423794589 0.0108214953987 86.286482812518
0.196000000000000 0.0109329081545 86.248053607718 0.9999378246643 -3.765849213929 0.9999378246643 -3.765849213929 0.0109329131152 86.248059272771
0.198000000000000 0.0110443205485 86.209629864698 0.9999365759572 -3.804274538891 0.9999365759572 -3.804274538891 0.0110443255753 86.209635535153
0.200000000000000 0.0111557276348 86.171205937675 0.9999353148674 -3.842699768511 0.9999353148674 -3.842699768511 0.0111557327262 86.171211611534
0.202000000000000 0.0112671293605 86.132781837998 0.9999340413972 -3.881124901829 0.9999340413972 -3.881124901829 0.0112671345152 86.132787513331
0.204000000000000 0.0113785256730 86.094357576591 0.9999327555493 -3.919549937885 0.9999327555493 -3.919549937885 0.0113785308895 86.094363251545
0.206000000000000 0.0114899165195 86.055933163992 0.9999314573260 -3.957974875716 0.9999314573260 -3.957974875716 0.0114899217965 86.055938836783
0.208000000000000 0.0116013018472 86.017508610351 0.9999301467300 -3.996399714364 0.9999301467300 -3.996399714364 0.0116013071834 86.017514279269
0.210000000000000 0.0117126816036 85.979083925470 0.9999288237638 -4.034824452866 0.9999288237638 -4.034824452866 0.0117126869976 85.979089588867
0.212000000000000 0.0118240557359 85.940659118799 0.9999274884301 -4.073249090265 0.9999274884301 -4.073249090265 0.0118240611863 85.940664775092
0.214000000000000 0.0119354241913 85.902234199475 0.9999261407314 -4.111673625599 0.9999261407314 -4.111673625599 0.0119354296969 85.902239847137
0.216000000000000 0.0120467869172 85.863809176302 0.9999247806704 -4.150098057909 0.9999247806704 -4.150098057909 0.0120467924765 85.863814813872
0.218000000000000 0.0121581438609 85.825384057814 0.9999234082497 -4.188522386237 0.9999234082497 -4.188522386237 0.0121581494727 85.825389683881
0.220000000000000 0.0122694949696 85.786958852243 0.9999220234721 -4.226946609623 0.9999220234721 -4.226946609623 0.0122695006326 85.786964465456
0.222000000000000 0.0123808401908 85.748533567559 0.9999206263403 -4.265370727108 0.9999206263403 -4.265370727108 0.0123808459036 85.748539166613
0.224000000000000 0.0124921794717 85.710108211472 0.9999192168569 -4.303794737733 0.9999192168569 -4.303794737733 0.0124921852330 85.710113795120
0.226000000000000 0.0126035127597 85.671682791443 0.9999177950247 -4.342218640542 0.9999177950247 -4.342218640542 0.0126035185682 85.671688358487
0.228000000000000 0.0127148400020 85.633257314704 0.9999163608465 -4.380642434575 0.9999163608465 -4.380642434575 0.0127148458565 85.633262863976
0.230000000000000 0.0128261611461 85.594831788248 0.9999149143252 -4.419066118875 0.9999149143252 -4.419066118875 0.0128261670452 85.594837318648
0.232000000000000 0.0129374761392 85.556406218867 0.9999134554635 -4.457489692484 0.9999134554635 -4.457489692484 0.0129374820817 85.556411729322
0.234000000000000 0.0130487849286 85.517980613136 0.9999119842642 -4.495913154446 0.9999119842642 -4.495913154446 0.0130487909133 85.517986102627
0.236000000000000 0.0131600874619 85.479554977436 0.9999105007303 -4.534336503803 0.9999105007303 -4.534336503803 0.0131600934874 85.479560444977
0.238000000000000 0.0132713836862 85.441129317959 0.9999090048646 -4.572759739598 0.9999090048646 -4.572759739598 0.0132713897514 85.441134762601
0.240000000000000 0.0133826735490 85.402703640714 0.9999074966700 -4.611182860876 0.9999074966700 -4.611182860876 0.0133826796525 85.402709061554
0.242000000000000 0.0134939569977 85.364277951536 0.9999059761495 -4.649605866680 0.9999059761495 -4.649605866680 0.0134939631383 85.364283347701
0.244000000000000 0.0136052339795 85.325852256087 0.9999044433060 -4.688028756054 0.9999044433060 -4.688028756054 0.0136052401560 85.325857626739
0.246000000000000 0.0137165044419 85.287426559878 0.9999028981425 -4.726451528042 0.9999028981425 -4.726451528042 0.0137165106531 85.287431904225
0.248000000000000 0.0138277683322 85.249000868264 0.9999013406620 -4.764874181691 0.9999013406620 -4.764874181691 0.0138277745768 85.249006185531
0.250000000000000 0.0139390255978 85.210575186449 0.9998997708676 -4.803296716043 0.9998997708676 -4.803296716043 0.0139390318748 85.210580475902
0.252000000000000 0.0140502761862 85.172149519498 0.9998981887622 -4.841719130145 0.9998981887622 -4.841719130145 0.0140502824942 85.172154780429
0.254000000000000 0.0141615200447 85.133723872335 0.9998965943489 -4.880141423042 0.9998965943489 -4.880141423042 0.0141615263826 85.133729104069
0.256000000000000 0.0142727571207 85.095298249761 0.9998949876309 -4.918563593780 0.9998949876309 -4.918563593780 0.0142727634873 85.095303451652
0.258000000000000 0.0143839873617 85.056872656446 0.9998933686112 -4.956985641404 0.9998933686112 -4.956985641404 0.0143839937557 85.056877827874
0.260000000000000 0.0144952107150 85.018447096932 0.9998917372930 -4.995407564962 0.9998917372930 -4.995407564962 0.0144952171353 85.018452237313
0.262000000000000 0.0146064271280 84.980021575666 0.9998900936794 -5.033829363501 0.9998900936794 -5.033829363501 0.0146064335735 84.980026684422
0.264000000000000 0.0147176365482 84.941596096958 0.9998884377736 -5.072251036066 0.9998884377736 -5.072251036066 0.0147176430177 84.941601173561
0.266000000000000 0.0148288389230 84.903170665025 0.9998867695789 -5.110672581705 0.9998867695789 -5.110672581705 0.0148288454154 84.903175708953
0.268000000000000 0.0149400341999 84.864745283981 0.9998850890983 -5.149093999465 0.9998850890983 -5.149093999465 0.0149400407140 84.864750294737
0.270000000000000 0.0150512223262 84.826319957833 0.9998833963353 -5.187515288395 0.9998833963353 -5.187515288395 0.0150512288609 84.826324934952
0.272000000000000 0.0151624032494 84.787894690491 0.9998816912930 -5.225936447543 0.9998816912930 -5.225936447543 0.0151624098036 84.787899633525
0.274000000000000 0.0152735769171 84.749469485781 0.9998799739748 -5.264357475957 0.9998799739748 -5.264357475957 0.0152735834896 84.749474394304
0.276000000000000 0.0153847432765 84.711044347432 0.9998782443839 -5.302778372685 0.9998782443839 -5.302778372685 0.0153847498663 84.711049221043
0.278000000000000 0.0154959022753 84.672619279093 0.9998765025237 -5.341199136777 0.9998765025237 -5.341199136777 0.0154959088812 84.672624117401
0.280000000000000 0.0156070538608 84.634194284320 0.9998747483976 -5.379619767282 0.9998747483976 -5.379619767282 0.0156070604817 84.634199086967
0.282000000000000 0.0157181979805 84.595769366600 0.9998729820089 -5.418040263249 0.9998729820089 -5.418040263249 0.0157182046154 84.595774133240
0.284000000000000 0.0158293345820 84.557344529336 0.9998712033611 -5.456460623729 0.9998712033611 -5.456460623729 0.0158293412297 84.557349259642
0.286000000000000 0.0159404636126 84.518919775859 0.9998694124575 -5.494880847771 0.9998694124575 -5.494880847771 0.0159404702721 84.518924469521
0.288000000000000 0.0160515850200 84.480495109431 0.9998676093016 -5.533300934427 0.9998676093016 -5.533300934427 0.0160515916902 84.480499766152
0.290000000000000 0.0161626987515 84.442070533234 0.9998657938969 -5.571720882746 0.9998657938969 -5.571720882746 0.0161627054313 84.442075152745
0.292000000000000 0.0162738047547 84.403646050394 0.9998639662469 -5.610140691781 0.9998639662469 -5.610140691781 0.0162738114432 84.403650632437
0.294000000000000 0.0163849029772 84.365221663969 0.9998621263550 -5.648560360582 0.9998621263550 -5.648560360582 0.0163849096731 84.365226208298
0.296000000000000 0.0164959933663 84.326797376949 0.9998602742249 -5.686979888201 0.9998602742249 -5.686979888201 0.0164960000688 84.326801883342
0.298000000000000 0.0166070758697 84.288373192269 0.9998584098601 -5.725399273690 0.9998584098601 -5.725399273690 0.0166070825776 84.288377660510
0.300000000000000 0.0167181504349 84.249949112805 0.9998565332642 -5.763818516103 0.9998565332642 -5.763818516103 0.0167181571472 84.249953542696
0.302000000000000 0.0168292170093 84.211525141377 0.9998546444407 -5.802237614490 0.9998546444407 -5.802237614490 0.0168292237251 84.211529532736
0.304000000000000 0.0169402755406 84.173101280748 0.9998527433933 -5.840656567906 0.9998527433933 -5.840656567906 0.0169402822588 84.173105633403
0.306000000000000 0.0170513259763 84.134677533625 0.9998508301257 -5.879075375404 0.9998508301257 -5.879075375404 0.0170513326959 84.134681847422
0.308000000000000 0.0171623682639 84.096253902673 0.9998489046414 -5.917494036037 0.9998489046414 -5.917494036037 0.0171623749839 84.096258177463
0.310000000000000 0.0172734023510 84.057830390495 0.9998469669443 -5.955912548860 0.9998469669443 -5.955912548860 0.0172734090705 84.057834626157
0.312000000000000 0.0173844281852 84.019406999659 0.9998450170380 -5.994330912926 0.9998450170380 -5.994330912926 0.0173844349031 84.019411196065
0.314000000000000 0.0174954457141 83.980983732679 0.9998430549263 -6.032749127290 0.9998430549263 -6.032749127290 0.0174954524294 83.980987889726
0.316000000000000 0.0176064548851 83.942560592026 0.9998410806129 -6.071167191008 0.9998410806129 -6.071167191008 0.0176064615970 83.942564709612
0.318000000000000 0.0177174556460 83.904137580123 0.9998390941015 -6.109585103135 0.9998390941015 -6.109585103135 0.0177174623533 83.904141658172
0.320000000000000 0.0178284479442 83.865714699360 0.9998370953961 -6.148002862726 0.9998370953961 -6.148002862726 0.0178284546462 83.865718737793
0.322000000000000 0.0179394317274 83.827291952075 0.9998350845004 -6.186420468836 0.9998350845004 -6.186420468836 0.0179394384230 83.827295950831
0.324000000000000 0.0180504069433 83.788869340576 0.9998330614183 -6.224837920524 0.9998330614183 -6.224837920524 0.0180504136315 83.788873299601
0.326000000000000 0.0181613735393 83.750446867127 0.9998310261536 -6.263255216845 0.9998310261536 -6.263255216845 0.0181613802193 83.750450786379
0.328000000000000 0.0182723314631 83.712024533958 0.9998289787103 -6.301672356856 0.9998289787103 -6.301672356856 0.0182723381340 83.712028413403
0.330000000000000 0.0183832806624 83.673602343261 0.9998269190922 -6.340089339614 0.9998269190922 -6.340089339614 0.0183832873232 83.673606182873
0.332000000000000 0.0184942210848 83.635180297189 0.9998248473033 -6.378506164177 0.9998248473033 -6.378506164177 0.0184942277346 83.635184096958
0.334000000000000 0.0186051526779 83.596758397871 0.9998227633476 -6.416922829604 0.9998227633476 -6.416922829604 0.0186051593158 83.596762157785
0.336000000000000 0.0187160753894 83.558336647394 0.9998206672290 -6.455339334952 0.9998206672290 -6.455339334952 0.0187160820145 83.558340367459
0.338000000000000 0.0188269891669 83.519915047817 0.9998185589515 -6.493755679280 0.9998185589515 -6.493755679280 0.0188269957782 83.519918728041
0.340000000000000 0.0189378939580 83.481493601166 0.9998164385191 -6.532171861647 0.9998164385191 -6.532171861647 0.0189379005548 83.481497241571
0.342000000000000 0.0190487897105 83.443072309436 0.9998143059360 -6.570587881113 0.9998143059360 -6.570587881113 0.0190487962918 83.443075910050
0.344000000000000 0.0191596763720 83.404651174597 0.9998121612061 -6.609003736737 0.9998121612061 -6.609003736737 0.0191596829370 83.404654735455
0.346000000000000 0.0192705538902 83.366230198590 0.9998100043336 -6.647419427580 0.9998100043336 -6.647419427580 0.0192705604380 83.366233719732
0.348000000000000 0.0193814222127 83.327809383325 0.9998078353226 -6.685834952701 0.9998078353226 -6.685834952701 0.0193814287425 83.327812864800
0.350000000000000 0.0194922812873 83.289388730685 0.9998056541771 -6.724250311162 0.9998056541771 -6.724250311162 0.0194922877983 83.289392172547
0.352000000000000 0.0196031310617 83.250968242530 0.9998034609015 -6.762665502025 0.9998034609015 -6.762665502025 0.0196031375529 83.250971644847
0.354000000000000 0.0197139714836 83.212547920692 0.9998012554997 -6.801080524349 0.9998012554997 -6.801080524349 0.0197139779542 83.212551283532
0.356000000000000 0.0198248025006 83.174127766979 0.9997990379761 -6.839495377198 0.9997990379761 -6.839495377198 0.0198248089499 83.174131090421
0.358000000000000 0.0199356240606 83.135707783179 0.9997968083349 -6.877910059633 0.9997968083349 -6.877910059633 0.0199356304876 83.135711067301
0.360000000000000 0.0200464361112 83.097287971049 0.9997945665803 -6.916324570718 0.9997945665803 -6.916324570718 0.0200464425152 83.097291215944
0.362000000000000 0.0201572386002 83.058868332331 0.9997923127166 -6.954738909515 0.9997923127166 -6.954738909515 0.0201572449804 83.058871538092
0.364000000000000 0.0202680314753 83.020448868740 0.9997900467480 -6.993153075087 0.9997900467480 -6.993153075087 0.0202680378308 83.020452035469
0.366000000000000 0.0203788146843 82.982029581970 0.9997877686790 -7.031567066499 0.9997877686790 -7.031567066499 0.0203788210144 82.982032709772
0.368000000000000 0.0204895881749 82.943610473698 0.9997854785137 -7.069980882813 0.9997854785137 -7.069980882813 0.0204895944788 82.943613562686
0.370000000000000 0.0206003518949 82.905191545577 0.9997831762566 -7.108394523096 0.9997831762566 -7.108394523096 0.0206003581718 82.905194595866
0.372000000000000 0.0207111057921 82.866772799238 0.9997808619120 -7.146807986411 0.9997808619120 -7.146807986411 0.0207111120412 82.866775810950
0.374000000000000 0.0208218498142 82.828354236302 0.9997785354844 -7.185221271824 0.9997785354844 -7.185221271824 0.0208218560348 82.828357209565
0.376000000000000 0.0209325839091 82.789935858362 0.9997761969781 -7.223634378401 0.9997761969781 -7.223634378401 0.0209325901004 82.789938793307
0.378000000000000 0.0210433080245 82.751517666995 0.9997738463976 -7.262047305207 0.9997738463976 -7.262047305207 0.0210433141858 82.751520563760
0.380000000000000 0.0211540221082 82.713099663763 0.9997714837474 -7.300460051309 0.9997714837474 -7.300460051309 0.0211540282387 82.713102522490
0.382000000000000 0.0212647261081 82.674681850210 0.9997691090320 -7.338872615773 0.9997691090320 -7.338872615773 0.0212647322071 82.674684671042
0.384000000000000 0.0213754199719 82.636264227858 0.9997667222558 -7.377284997667 0.9997667222558 -7.377284997667 0.0213754260387 82.636267010948
0.386000000000000 0.0214861036475 82.597846798222 0.9997643234234 -7.415697196057 0.9997643234234 -7.415697196057 0.0214861096813 82.597849543722
0.388000000000000 0.0215967770828 82.559429562793 0.9997619125393 -7.454109210013 0.9997619125393 -7.454109210013 0.0215967830829 82.559432270864
0.390000000000000 0.0217074402255 82.521012523050 0.9997594896082 -7.492521038603 0.9997594896082 -7.492521038603 0.0217074461912 82.521015193852
0.392000000000000 0.0218180930236 82.482595680456 0.9997570546345 -7.530932680894 0.9997570546345 -7.530932680894 0.0218180989542 82.482598314156
0.394000000000000 0.0219287354248 82.444179036460 0.9997546076230 -7.569344135956 0.9997546076230 -7.569344135956 0.0219287413196 82.444181633225
0.396000000000000 0.0220393673771 82.405762592495 0.9997521485783 -7.607755402858 0.9997521485783 -7.607755402858 0.0220393732354 82.405765152502
0.398000000000000 0.0221499888282 82.367346349981 0.9997496775050 -7.646166480671 0.9997496775050 -7.646166480671 0.0221499946494 82.367348873406
0.400000000000000 0.0222605997262 82.328930310324 0.9997471944078 -7.684577368465 0.9997471944078 -7.684577368465 0.0222606055095 82.328932797346
0.402000000000000 0.0223712000189 82.290514474917 0.9997446992914 -7.722988065310 0.9997446992914 -7.722988065310 0.0223712057636 82.290516925722
0.404000000000000 0.0224817896541 82.252098845141 0.9997421921605 -7.761398570277 0.9997421921605 -7.761398570277 0.0224817953597 82.252101259912
0.406000000000000 0.0225923685798 82.213683422359 0.9997396730200 -7.799808882437 0.9997396730200 -7.799808882437 0.0225923742456 82.213685801291
0.408000000000000 0.0227029367439 82.175268207930 0.9997371418744 -7.838219000864 0.9997371418744 -7.838219000864 0.0227029423692 82.175270551213
0.410000000000000 0.0228134940943 82.136853203194 0.9997345987288 -7.876628924628 0.9997345987288 -7.876628924628 0.0228134996785 82.136855511023
0.412000000000000 0.0229240405790 82.098438409483 0.9997320435878 -7.915038652802 0.9997320435878 -7.915038652802 0.0229240461214 82.098440682057
0.414000000000000 0.0230345761459 82.060023828113 0.9997294764563 -7.953448184460 0.9997294764563 -7.953448184460 0.0230345816459 82.060026065634
0.416000000000000 0.0231451007429 82.021609460396 0.9997268973391 -7.991857518675 0.9997268973391 -7.991857518675 0.0231451061999 82.021611663069
0.418000000000000 0.0232556143179 81.983195307624 0.9997243062412 -8.030266654521 0.9997243062412 -8.030266654521 0.0232556197313 81.983197475655
0.420000000000000 0.0233661168191 81.944781371088 0.9997217031674 -8.068675591072 0.9997217031674 -8.068675591072 0.0233661221882 81.944783504686
0.422000000000000 0.0234766081942 81.906367652063 0.9997190881226 -8.107084327403 0.9997190881226 -8.107084327403 0.0234766135186 81.906369751436
0.424000000000000 0.0235870883913 81.867954151809 0.9997164611119 -8.145492862589 0.9997164611119 -8.145492862589 0.0235870936703 81.867956217175
0.426000000000000 0.0236975573585 81.829540871585 0.9997138221401 -8.183901195705 0.9997138221401 -8.183901195705 0.0236975625914 81.829542903158
0.428000000000000 0.0238080150436 81.791127812637 0.9997111712122 -8.222309325829 0.9997111712122 -8.222309325829 0.0238080202299 81.791129810637
0.430000000000000 0.0239184613947 81.752714976202 0.9997085083333 -8.260717252034 0.9997085083333 -8.260717252034 0.0239184665338 81.752716940847
0.432000000000000 0.0240288963598 81.714302363503 0.9997058335084 -8.299124973400 0.9997058335084 -8.299124973400 0.0240289014511 81.714304295015
0.434000000000000 0.0241393198869 81.675889975761 0.9997031467426 -8.337532489003 0.9997031467426 -8.337532489003 0.0241393249300 81.675891874362
0.436000000000000 0.0242497319240 81.637477814178 0.9997004480408 -8.375939797920 0.9997004480408 -8.375939797920 0.0242497369183 81.637479680100
0.438000000000000 0.0243601324193 81.599065879963 0.9996977374082 -8.414346899230 0.9996977374082 -8.414346899230 0.0243601373641 81.599067713430
0.440000000000000 0.0244705213206 81.560654174300 0.9996950148500 -8.452753792011 0.9996950148500 -8.452753792011 0.0244705262155 81.560655975542
0.442000000000000 0.0245808985762 81.522242698376 0.9996922803712 -8.491160475342 0.9996922803712 -8.491160475342 0.0245809034206 81.522244467623
0.444000000000000 0.0246912641340 81.483831453364 0.9996895339770 -8.529566948303 0.9996895339770 -8.529566948303 0.0246912689274 81.483833190851
0.446000000000000 0.0248016179422 81.445420440433 0.9996867756726 -8.567973209973 0.9996867756726 -8.567973209973 0.0248016226840 81.445422146391
0.448000000000000 0.0249119599488 81.407009660738 0.9996840054632 -8.606379259432 0.9996840054632 -8.606379259432 0.0249119646386 81.407011335406
0.450000000000000 0.0250222901018 81.368599115434 0.9996812233540 -8.644785095762 0.9996812233540 -8.644785095762 0.0250222947391 81.368600759048
0.452000000000000 0.0251326083495 81.330188805663 0.9996784293503 -8.683190718043 0.9996784293503 -8.683190718043 0.0251326129337 81.330190418460
0.454000000000000 0.0252429146399 81.291778732563 0.9996756234574 -8.721596125357 0.9996756234574 -8.721596125357 0.0252429191705 81.291780314784
0.456000000000000 0.0253532089211 81.253368897261 0.9996728056804 -8.760001316785 0.9996728056804 -8.760001316785 0.0253532133977 81.253370449149
0.458000000000000 0.0254634911412 81.214959300883 0.9996699760248 -8.798406291411 0.9996699760248 -8.798406291411 0.0254634955633 81.214960822677
0.460000000000000 0.0255737612485 81.176549944544 0.9996671344958 -8.836811048318 0.9996671344958 -8.836811048318 0.0255737656155 81.176551436487
0.462000000000000 0.0256840191910 81.138140829350 0.9996642810989 -8.875215586587 0.9996642810989 -8.875215586587 0.0256840235025 81.138142291688
0.464000000000000 0.0257942649169 81.099731956403 0.9996614158394 -8.913619905304 0.9996614158394 -8.913619905304 0.0257942691725 81.099733389385
0.466000000000000 0.0259044983743 81.061323326805 0.9996585387226 -8.952024003553 0.9996585387226 -8.952024003553 0.0259045025735 81.061324730673
0.468000000000000 0.0260147195114 81.022914941639 0.9996556497540 -8.990427880417 0.9996556497540 -8.990427880417 0.0260147236538 81.022916316642
0.470000000000000 0.0261249282765 80.984506801992 0.9996527489391 -9.028831534983 0.9996527489391 -9.028831534983 0.0261249323616 80.984508148379
0.472000000000000 0.0262351246176 80.946098908942 0.9996498362833 -9.067234966335 0.9996498362833 -9.067234966335 0.0262351286450 80.946100226960
0.474000000000000 0.0263453084831 80.907691263558 0.9996469117920 -9.105638173561 0.9996469117920 -9.105638173561 0.0263453124523 80.907692553458
0.476000000000000 0.0264554798210 80.869283866908 0.9996439754709 -9.144041155746 0.9996439754709 -9.144041155746 0.0264554837317 80.869285128941
0.478000000000000 0.0265656385797 80.830876720050 0.9996410273253 -9.182443911977 0.9996410273253 -9.182443911977 0.0265656424313 80.830877954468
0.480000000000000 0.0266757847073 80.792469824042 0.9996380673609 -9.220846441342 0.9996380673609 -9.220846441342 0.0266757884995 80.792471031096
0.482000000000000 0.0267859181521 80.754063179929 0.9996350955833 -9.259248742928 0.9996350955833 -9.259248742928 0.0267859218845 80.754064359872
0.484000000000000 0.0268960388624 80.715656788757 0.9996321119979 -9.297650815825 0.9996321119979 -9.297650815825 0.0268960425345 80.715657941841
0.486000000000000 0.0270061467863 80.677250651565 0.9996291166104 -9.336052659119 0.9996291166104 -9.336052659119 0.0270061503979 80.677251778046
0.488000000000000 0.0271162418722 80.638844769385 0.9996261094265 -9.374454271902 0.9996261094265 -9.374454271902 0.0271162454228 80.638845869517
0.490000000000000 0.0272263240683 80.600439143246 0.9996230904518 -9.412855653263 0.9996230904518 -9.412855653263 0.0272263275575 80.600440217283
0.492000000000000 0.0273363933229 80.562033774171 0.9996200596920 -9.451256802291 0.9996200596920 -9.451256802291 0.0273363967504 80.562034822368
0.494000000000000 0.0274464495844 80.523628663180 0.9996170171527 -9.489657718078 0.9996170171527 -9.489657718078 0.0274464529497 80.523629685792
0.496000000000000 0.0275564928009 80.485223811285 0.9996139628397 -9.528058399714 0.9996139628397 -9.528058399714 0.0275564961037 80.485224808570
0.498000000000000 0.0276665229209 80.446819219499 0.9996108967587 -9.566458846292 0.9996108967587 -9.566458846292 0.0276665261609 80.446820191709
0.500000000000000 0.0277765398926 80.408414888820 0.9996078189156 -9.604859056903 0.9996078189156 -9.604859056903 0.0277765430694 80.408415836216
0.502000000000000 0.0278865436644 80.370010820254 0.9996047293159 -9.643259030640 0.9996047293159 -9.643259030640 0.0278865467777 80.370011743090
0.504000000000000 0.0279965341847 80.331607014795 0.9996016279656 -9.681658766596 0.9996016279656 -9.681658766596 0.0279965372340 80.331607913330