! Sonnet Data File
! From: em Version : 19.52.2025
! From Project: CPW
! Data is De-embedded 
! Data File Written: 02/24/2026 12:47:39
!< HDATE 02/24/2026 12:38:38
!< MDATE 02/24/2026 12:38:38
!< PARAMS
!< Lk = 0.2
!< END PARAMS
# GHZ S MA R 50.00000
0.100000000000000 0.0028946128374 88.257756522683 0.9999945359006 -1.767462568386 0.9999945359008 -1.767462568385 0.0028946128382 88.257756526841
0.102000000000000 0.0029525441269 88.222459439881 0.9999943419985 -1.802814746475 0.9999943419985 -1.802814746475 0.0029525430142 88.222409912713
0.104000000000000 0.0030104741545 88.187159336278 0.9999941447404 -1.838166910022 0.9999941447404 -1.838166910022 0.0030104719574 88.187063123774
0.106000000000000 0.0030684029023 88.151856415147 0.9999939441163 -1.873519058035 0.9999939441163 -1.873519058035 0.0030683996325 88.151715974320
0.108000000000000 0.0031263303483 88.116550841402 0.9999937401267 -1.908871190283 0.9999937401267 -1.908871190283 0.0031263260175 88.116368488042
0.110000000000000 0.0031842564705 88.081242767990 0.9999935327719 -1.944223306535 0.9999935327719 -1.944223306535 0.0031842510903 88.081020686928
0.112000000000000 0.0032421812469 88.045932336828 0.9999933220523 -1.979575406562 0.9999933220523 -1.979575406562 0.0032421748289 88.045672591366
0.114000000000000 0.0033001046554 88.010619679925 0.9999931079683 -2.014927490133 0.9999931079683 -2.014927490133 0.0033000972113 88.010324220353
0.116000000000000 0.0033580266741 87.975304920106 0.9999928905202 -2.050279557017 0.9999928905202 -2.050279557017 0.0033580182155 87.974975591534
0.118000000000000 0.0034159472808 87.939988171920 0.9999926697086 -2.085631606985 0.9999926697086 -2.085631606985 0.0034159378193 87.939626721366
0.120000000000000 0.0034738664537 87.904669542185 0.9999924455337 -2.120983639805 0.9999924455337 -2.120983639805 0.0034738560008 87.904277625223
0.122000000000000 0.0035317841706 87.869349130763 0.9999922179960 -2.156335655249 0.9999922179960 -2.156335655249 0.0035317727379 87.868928317429
0.124000000000000 0.0035897004095 87.834027030973 0.9999919870960 -2.191687653084 0.9999919870960 -2.191687653084 0.0035896880087 87.833578811409
0.126000000000000 0.0036476151485 87.798703330268 0.9999917528339 -2.227039633080 0.9999917528339 -2.227039633080 0.0036476017910 87.798229119742
0.128000000000000 0.0037055283655 87.763378110595 0.9999915152103 -2.262391595009 0.9999915152103 -2.262391595009 0.0037055140628 87.762879254184
0.130000000000000 0.0037634400385 87.728051448816 0.9999912742255 -2.297743538639 0.9999912742255 -2.297743538639 0.0037634248020 87.727529225793
0.132000000000000 0.0038213501454 87.692723417160 0.9999910298801 -2.333095463739 0.9999910298801 -2.333095463739 0.0038213339868 87.692179044949
0.134000000000000 0.0038792586643 87.657394083475 0.9999907821744 -2.368447370081 0.9999907821744 -2.368447370081 0.0038792415949 87.656828721411
0.136000000000000 0.0039371655731 87.622063511661 0.9999905311088 -2.403799257433 0.9999905311088 -2.403799257433 0.0039371476044 87.621478264353
0.138000000000000 0.0039950708498 87.586731761848 0.9999902766839 -2.439151125565 0.9999902766839 -2.439151125565 0.0039950519932 87.586127682417
0.140000000000000 0.0040529744724 87.551398890753 0.9999900189000 -2.474502974247 0.9999900189000 -2.474502974247 0.0040529547393 87.550776983773
0.142000000000000 0.0041108764189 87.516064951863 0.9999897577577 -2.509854803248 0.9999897577577 -2.509854803248 0.0041108558206 87.515426176080
0.144000000000000 0.0041687766672 87.480729995687 0.9999894932574 -2.545206612340 0.9999894932574 -2.545206612340 0.0041687552151 87.480075266653
0.146000000000000 0.0042266751954 87.445394069935 0.9999892253995 -2.580558401291 0.9999892253995 -2.580558401291 0.0042266529008 87.444724262291
0.148000000000000 0.0042845719814 87.410057219758 0.9999889541845 -2.615910169870 0.9999889541845 -2.615910169870 0.0042845488556 87.409373169528
0.150000000000000 0.0043424670031 87.374719487858 0.9999886796130 -2.651261917849 0.9999886796130 -2.651261917849 0.0043424430574 87.374021994486
0.152000000000000 0.0044003602387 87.339380914699 0.9999884016853 -2.686613644996 0.9999884016853 -2.686613644996 0.0044003354843 87.338670743003
0.154000000000000 0.0044582516660 87.304041538595 0.9999881204020 -2.721965351082 0.9999881204020 -2.721965351082 0.0044582261142 87.303319420584
0.156000000000000 0.0045161412630 87.268701395929 0.9999878357635 -2.757317035876 0.9999878357635 -2.757317035876 0.0045161149250 87.267968032464
0.158000000000000 0.0045740290077 87.233360521199 0.9999875477703 -2.792668699149 0.9999875477703 -2.792668699149 0.0045740018947 87.232616583612
0.160000000000000 0.0046319148782 87.198018947162 0.9999872564230 -2.828020340670 0.9999872564230 -2.828020340670 0.0046318870012 87.197265078738
0.162000000000000 0.0046897988523 87.162676704981 0.9999869617221 -2.863371960208 0.9999869617221 -2.863371960208 0.0046897702226 87.161913522332
0.164000000000000 0.0047476809081 87.127333824242 0.9999866636680 -2.898723557536 0.9999866636680 -2.898723557536 0.0047476515367 87.126561918664
0.166000000000000 0.0048055610235 87.091990333146 0.9999863622612 -2.934075132421 0.9999863622612 -2.934075132421 0.0048055309215 87.091210271792
0.168000000000000 0.0048634391765 87.056646258476 0.9999860575024 -2.969426684634 0.9999860575024 -2.969426684634 0.0048634083550 87.055858585575
0.170000000000000 0.0049213153451 87.021301625812 0.9999857493919 -3.004778213945 0.9999857493919 -3.004778213945 0.0049212838151 87.020506863708
0.172000000000000 0.0049791895074 86.985956459476 0.9999854379304 -3.040129720124 0.9999854379304 -3.040129720124 0.0049791572798 86.985155109679
0.174000000000000 0.0050370616411 86.950610782703 0.9999851231183 -3.075481202941 0.9999851231183 -3.075481202941 0.0050370287270 86.949803326869
0.176000000000000 0.0050949317245 86.915264617638 0.9999848049563 -3.110832662166 0.9999848049563 -3.110832662166 0.0050948981347 86.914451518464
0.178000000000000 0.0051527997353 86.879917985430 0.9999844834447 -3.146184097569 0.9999844834447 -3.146184097569 0.0051527654808 86.879099687513
0.180000000000000 0.0052106656516 86.844570906287 0.9999841585843 -3.181535508920 0.9999841585843 -3.181535508920 0.0052106307433 86.843747836944
0.182000000000000 0.0052685294515 86.809223399504 0.9999838303755 -3.216886895990 0.9999838303755 -3.216886895990 0.0052684939001 86.808395969544
0.184000000000000 0.0053263911128 86.773875483514 0.9999834988189 -3.252238258547 0.9999834988189 -3.252238258547 0.0053263549292 86.773044087978
0.186000000000000 0.0053842506136 86.738527175994 0.9999831639150 -3.287589596363 0.9999831639150 -3.287589596363 0.0053842138086 86.737692194800
0.188000000000000 0.0054421079317 86.703178493827 0.9999828256645 -3.322940909208 0.9999828256645 -3.322940909208 0.0054420705161 86.702340292459
0.190000000000000 0.0054999630454 86.667829453181 0.9999824840678 -3.358292196852 0.9999824840678 -3.358292196852 0.0054999250298 86.666988383302
0.192000000000000 0.0055578159324 86.632480069542 0.9999821391257 -3.393643459064 0.9999821391257 -3.393643459064 0.0055577773276 86.631636469575
0.194000000000000 0.0056156665708 86.597130357753 0.9999817908385 -3.428994695616 0.9999817908385 -3.428994695616 0.0056156273874 86.596284553432
0.196000000000000 0.0056735149385 86.561780332036 0.9999814392070 -3.464345906276 0.9999814392070 -3.464345906276 0.0056734751872 86.560932636928
0.198000000000000 0.0057313610136 86.526430006032 0.9999810842317 -3.499697090817 0.9999810842317 -3.499697090817 0.0057313207049 86.525580722065
0.200000000000000 0.0057892047740 86.491079392843 0.9999807259132 -3.535048249008 0.9999807259132 -3.535048249008 0.0057891639186 86.490228810728
0.202000000000000 0.0058470461978 86.455728505023 0.9999803642521 -3.570399380619 0.9999803642521 -3.570399380619 0.0058470048061 86.454876904756
0.204000000000000 0.0059048852628 86.420377354639 0.9999799992491 -3.605750485420 0.9999799992491 -3.605750485420 0.0059048433454 86.419525005909
0.206000000000000 0.0059627219471 86.385025953271 0.9999796309046 -3.641101563182 0.9999796309046 -3.641101563182 0.0059626795144 86.384173115880
0.208000000000000 0.0060205562287 86.349674312054 0.9999792592194 -3.676452613676 0.9999792592194 -3.676452613676 0.0060205132912 86.348821236278
0.210000000000000 0.0060783880855 86.314322441698 0.9999788841941 -3.711803636671 0.9999788841941 -3.711803636671 0.0060783446535 86.313469368688
0.212000000000000 0.0061362174956 86.278970352491 0.9999785058292 -3.747154631938 0.9999785058292 -3.747154631938 0.0061361735795 86.278117514610
0.214000000000000 0.0061940444369 86.243618054332 0.9999781241254 -3.782505599248 0.9999781241254 -3.782505599248 0.0061940000471 86.242765675488
0.216000000000000 0.0062518688873 86.208265556749 0.9999777390834 -3.817856538371 0.9999777390834 -3.817856538371 0.0062518240341 86.207413852725
0.218000000000000 0.0063096908250 86.172912868900 0.9999773507037 -3.853207449078 0.9999773507037 -3.853207449078 0.0063096455185 86.172062047671
0.220000000000000 0.0063675102278 86.137559999621 0.9999769589871 -3.888558331138 0.9999769589871 -3.888558331138 0.0063674644784 86.136710261616
0.222000000000000 0.0064253270738 86.102206957426 0.9999765639341 -3.923909184323 0.9999765639341 -3.923909184323 0.0064252808916 86.101358495824
0.224000000000000 0.0064831413409 86.066853750487 0.9999761655454 -3.959260008403 0.9999761655454 -3.959260008403 0.0064830947361 86.066006751494
0.226000000000000 0.0065409530072 86.031500386712 0.9999757638217 -3.994610803149 0.9999757638217 -3.994610803149 0.0065409059899 86.030655029800
0.228000000000000 0.0065987620506 85.996146873723 0.9999753587636 -4.029961568332 0.9999753587636 -4.029961568332 0.0065987146308 85.995303331862
0.230000000000000 0.0066565684491 85.960793218851 0.9999749503719 -4.065312303721 0.9999749503719 -4.065312303721 0.0066565206369 85.959951658780
0.232000000000000 0.0067143721806 85.925439429188 0.9999745386471 -4.100663009088 0.9999745386471 -4.100663009088 0.0067143239861 85.924600011600
0.234000000000000 0.0067721732233 85.890085511563 0.9999741235899 -4.136013684204 0.9999741235899 -4.136013684204 0.0067721246563 85.889248391332
0.236000000000000 0.0068299715550 85.854731472568 0.9999737052010 -4.171364328838 0.9999737052010 -4.171364328838 0.0068299226255 85.853896798973
0.238000000000000 0.0068877671537 85.819377318584 0.9999732834812 -4.206714942764 0.9999732834812 -4.206714942764 0.0068877178717 85.818545235459
0.240000000000000 0.0069455599975 85.784023055756 0.9999728584310 -4.242065525749 0.9999728584310 -4.242065525749 0.0069455103728 85.783193701720
0.242000000000000 0.0070033500643 85.748668690026 0.9999724300513 -4.277416077566 0.9999724300513 -4.277416077566 0.0070033001067 85.747842198653
0.244000000000000 0.0070611373322 85.713314227140 0.9999719983426 -4.312766597986 0.9999719983426 -4.312766597986 0.0070610870514 85.712490727111
0.246000000000000 0.0071189217790 85.677959672650 0.9999715633057 -4.348117086779 0.9999715633057 -4.348117086779 0.0071188711849 85.677139287932
0.248000000000000 0.0071767033829 85.642605031903 0.9999711249413 -4.383467543716 0.9999711249413 -4.383467543716 0.0071766524850 85.641787881934
0.250000000000000 0.0072344821217 85.607250310113 0.9999706832502 -4.418817968569 0.9999706832502 -4.418817968569 0.0072344309298 85.606436509902
0.252000000000000 0.0072922579735 85.571895512277 0.9999702382330 -4.454168361108 0.9999702382330 -4.454168361108 0.0072922064972 85.571085172581
0.254000000000000 0.0073500309163 85.536540643271 0.9999697898904 -4.489518721104 0.9999697898904 -4.489518721104 0.0073499791652 85.535733870729
0.256000000000000 0.0074078009281 85.501185707772 0.9999693382232 -4.524869048329 0.9999693382232 -4.524869048329 0.0074077489117 85.500382605057
0.258000000000000 0.0074655679867 85.465830710342 0.9999688832321 -4.560219342553 0.9999688832321 -4.560219342553 0.0074655157146 85.465031376255
0.260000000000000 0.0075233320704 85.430475655372 0.9999684249179 -4.595569603547 0.9999684249179 -4.595569603547 0.0075232795520 85.429680185011
0.262000000000000 0.0075810931570 85.395120547132 0.9999679632813 -4.630919831083 0.9999679632813 -4.630919831083 0.0075810404016 85.394329031967
0.264000000000000 0.0076388512245 85.359765389755 0.9999674983230 -4.666270024932 0.9999674983230 -4.666270024932 0.0076387982417 85.358977917781
0.266000000000000 0.0076966062509 85.324410187227 0.9999670300438 -4.701620184865 0.9999670300438 -4.701620184865 0.0076965530499 85.323626843054
0.268000000000000 0.0077543582143 85.289054943444 0.9999665584445 -4.736970310654 0.9999665584445 -4.736970310654 0.0077543048044 85.288275808396
0.270000000000000 0.0078121070926 85.253699662149 0.9999660835258 -4.772320402069 0.9999660835258 -4.772320402069 0.0078120534831 85.252924814387
0.272000000000000 0.0078698528637 85.218344346982 0.9999656052885 -4.807670458882 0.9999656052885 -4.807670458882 0.0078697990639 85.217573861609
0.274000000000000 0.0079275955058 85.182989001483 0.9999651237333 -4.843020480865 0.9999651237333 -4.843020480865 0.0079275415247 85.182222950611
0.276000000000000 0.0079853349968 85.147633629070 0.9999646388610 -4.878370467788 0.9999646388610 -4.878370467788 0.0079852808437 85.146872081928
0.278000000000000 0.0080430713147 85.112278233069 0.9999641506725 -4.913720419423 0.9999641506725 -4.913720419423 0.0080430169985 85.111521256098
0.280000000000000 0.0081008044375 85.076922816692 0.9999636591684 -4.949070335542 0.9999636591684 -4.949070335542 0.0081007499674 85.076170473628
0.282000000000000 0.0081585343432 85.041567383077 0.9999631643496 -4.984420215916 0.9999631643496 -4.984420215916 0.0081584797281 85.040819735010
0.284000000000000 0.0082162610098 85.006211935254 0.9999626662169 -5.019770060317 0.9999626662169 -5.019770060317 0.0082162062587 85.005469040740
0.286000000000000 0.0082739844152 84.970856476168 0.9999621647711 -5.055119868516 0.9999621647711 -5.055119868516 0.0082739295371 84.970118391288
0.288000000000000 0.0083317045376 84.935501008678 0.9999616600129 -5.090469640285 0.9999616600129 -5.090469640285 0.0083316495413 84.934767787115
0.290000000000000 0.0083894213548 84.900145535558 0.9999611519432 -5.125819375395 0.9999611519432 -5.125819375395 0.0083893662492 84.899417228683
0.292000000000000 0.0084471348450 84.864790059516 0.9999606405629 -5.161169073619 0.9999606405629 -5.161169073619 0.0084470796387 84.864066716420
0.294000000000000 0.0085048449860 84.829434583155 0.9999601258726 -5.196518734728 0.9999601258726 -5.196518734728 0.0085047896879 84.828716250765
0.296000000000000 0.0085625517559 84.794079109036 0.9999596078733 -5.231868358493 0.9999596078733 -5.231868358493 0.0085624963747 84.793365832133
0.298000000000000 0.0086202551328 84.758723639618 0.9999590865658 -5.267217944687 0.9999590865658 -5.267217944687 0.0086201996771 84.758015460935
0.300000000000000 0.0086779550945 84.723368177311 0.9999585619508 -5.302567493082 0.9999585619508 -5.302567493082 0.0086778995729 84.722665137571
0.302000000000000 0.0087356516191 84.688012724454 0.9999580340293 -5.337917003449 0.9999580340293 -5.337917003449 0.0087355960403 84.687314862436
0.304000000000000 0.0087933446847 84.652657283313 0.9999575028021 -5.373266475560 0.9999575028021 -5.373266475560 0.0087932890570 84.651964635906
0.306000000000000 0.0088510342691 84.617301856097 0.9999569682700 -5.408615909188 0.9999569682700 -5.408615909188 0.0088509786012 84.616614458366
0.308000000000000 0.0089087203505 84.581946444954 0.9999564304339 -5.443965304103 0.9999564304339 -5.443965304103 0.0089086646507 84.581264330173
0.310000000000000 0.0089664029068 84.546591051975 0.9999558892947 -5.479314660079 0.9999558892947 -5.479314660079 0.0089663471835 84.545914251690
0.312000000000000 0.0090240819160 84.511235679184 0.9999553448531 -5.514663976888 0.9999553448531 -5.514663976888 0.0090240261776 84.510564223262
0.314000000000000 0.0090817573562 84.475880328566 0.9999547971101 -5.550013254301 0.9999547971101 -5.550013254301 0.0090817016109 84.475214245245
0.316000000000000 0.0091394292053 84.440525002038 0.9999542460665 -5.585362492091 0.9999542460665 -5.585362492091 0.0091393734615 84.439864317966
0.318000000000000 0.0091970974414 84.405169701480 0.9999536917233 -5.620711690030 0.9999536917233 -5.620711690030 0.0091970417071 84.404514441755
0.320000000000000 0.0092547620425 84.369814428704 0.9999531340812 -5.656060847890 0.9999531340812 -5.656060847890 0.0092547063260 84.369164616933
0.322000000000000 0.0093124229865 84.334459185489 0.9999525731412 -5.691409965444 0.9999525731412 -5.691409965444 0.0093123672959 84.333814843826
0.324000000000000 0.0093700802516 84.299103973557 0.9999520089042 -5.726759042464 0.9999520089042 -5.726759042464 0.0093700245948 84.298465122731
0.326000000000000 0.0094277338156 84.263748794597 0.9999514413710 -5.762108078722 0.9999514413710 -5.762108078722 0.0094276782008 84.263115453970
0.328000000000000 0.0094853836567 84.228393650241 0.9999508705426 -5.797457073992 0.9999508705426 -5.797457073992 0.0094853280918 84.227765837821
0.330000000000000 0.0095430297528 84.193038542083 0.9999502964199 -5.832806028044 0.9999502964199 -5.832806028044 0.0095429742457 84.192416274596
0.332000000000000 0.0096006720819 84.157683471675 0.9999497190037 -5.868154940653 0.9999497190037 -5.868154940653 0.0096006166406 84.157066764568
0.334000000000000 0.0096583106221 84.122328440537 0.9999491382950 -5.903503811590 0.9999491382950 -5.903503811590 0.0096582552543 84.121717308026
0.336000000000000 0.0097159453514 84.086973450140 0.9999485542947 -5.938852640628 0.9999485542947 -5.938852640628 0.0097158900649 84.086367905254
0.338000000000000 0.0097735762477 84.051618501916 0.9999479670038 -5.974201427540 0.9999479670038 -5.974201427540 0.0097735210503 84.051018556508
0.340000000000000 0.0098312032892 84.016263597276 0.9999473764231 -6.009550172099 0.9999473764231 -6.009550172099 0.0098311481886 84.015669262077
0.342000000000000 0.0098888264538 83.980908737576 0.9999467825536 -6.044898874077 0.9999467825536 -6.044898874077 0.0098887714576 83.980320022213
0.344000000000000 0.0099464457196 83.945553924151 0.9999461853962 -6.080247533248 0.9999461853962 -6.080247533248 0.0099463908353 83.944970837170
0.346000000000000 0.0100040610645 83.910199158293 0.9999455849519 -6.115596149383 0.9999455849519 -6.115596149383 0.0100040062997 83.909621707212
0.348000000000000 0.0100616724666 83.874844441279 0.9999449812215 -6.150944722257 0.9999449812215 -6.150944722257 0.0100616178289 83.874272632588
0.350000000000000 0.0101192799040 83.839489774328 0.9999443742062 -6.186293251641 0.9999443742062 -6.186293251641 0.0101192254007 83.838923613538
0.352000000000000 0.0101768833545 83.804135158653 0.9999437639068 -6.221641737310 0.9999437639068 -6.221641737310 0.0101768289931 83.803574650318
0.354000000000000 0.0102344827964 83.768780595423 0.9999431503242 -6.256990179035 0.9999431503242 -6.256990179035 0.0102344285841 83.768225743150
0.356000000000000 0.0102920782075 83.733426085785 0.9999425334595 -6.292338576591 0.9999425334595 -6.292338576591 0.0102920241518 83.732876892289
0.358000000000000 0.0103496695659 83.698071630852 0.9999419133137 -6.327686929751 0.9999419133137 -6.327686929751 0.0103496156739 83.697528097951
0.360000000000000 0.0104072568497 83.662717231718 0.9999412898876 -6.363035238287 0.9999412898876 -6.363035238287 0.0104072031287 83.662179360378
0.362000000000000 0.0104648400368 83.627362889451 0.9999406631823 -6.398383501973 0.9999406631823 -6.398383501973 0.0104647864939 83.626830679784
0.364000000000000 0.0105224191053 83.592008605077 0.9999400331987 -6.433731720582 0.9999400331987 -6.433731720582 0.0105223657476 83.591482056397
0.366000000000000 0.0105799940333 83.556654379620 0.9999393999379 -6.469079893888 0.9999393999379 -6.469079893888 0.0105799408678 83.556133490431
0.368000000000000 0.0106375647986 83.521300214061 0.9999387634008 -6.504428021664 0.9999387634008 -6.504428021664 0.0106375118325 83.520784982113
0.370000000000000 0.0106951313795 83.485946109370 0.9999381235885 -6.539776103684 0.9999381235885 -6.539776103684 0.0106950786196 83.485436531647
0.372000000000000 0.0107526937539 83.450592066490 0.9999374805019 -6.575124139721 0.9999374805019 -6.575124139721 0.0107526412071 83.450088139252
0.374000000000000 0.0108102518999 83.415238086333 0.9999368341421 -6.610472129548 0.9999368341421 -6.610472129548 0.0108101995731 83.414739805128
0.376000000000000 0.0108678057954 83.379884169811 0.9999361845100 -6.645820072940 0.9999361845100 -6.645820072940 0.0108677536954 83.379391529484
0.378000000000000 0.0109253554185 83.344530317794 0.9999355316067 -6.681167969670 0.9999355316067 -6.681167969670 0.0109253035521 83.344043312527
0.380000000000000 0.0109829007473 83.309176531135 0.9999348754332 -6.716515819512 0.9999348754332 -6.716515819512 0.0109828491211 83.308695154451
0.382000000000000 0.0110404417598 83.273822810682 0.9999342159906 -6.751863622239 0.9999342159906 -6.751863622239 0.0110403903806 83.273347055457
0.384000000000000 0.0110979784340 83.238469157246 0.9999335532798 -6.787211377626 0.9999335532798 -6.787211377626 0.0110979273083 83.237999015740
0.386000000000000 0.0111555107480 83.203115571631 0.9999328873019 -6.822559085447 0.9999328873019 -6.822559085447 0.0111554598824 83.202651035498
0.388000000000000 0.0112130386798 83.167762054616 0.9999322180579 -6.857906745475 0.9999322180579 -6.857906745475 0.0112129880807 83.167303114924
0.390000000000000 0.0112705622074 83.132408606959 0.9999315455489 -6.893254357484 0.9999315455489 -6.893254357484 0.0112705118814 83.131955254196
0.392000000000000 0.0113280813090 83.097055229415 0.9999308697760 -6.928601921249 0.9999308697760 -6.928601921249 0.0113280312624 83.096607453513
0.394000000000000 0.0113855959624 83.061701922709 0.9999301907402 -6.963949436544 0.9999301907402 -6.963949436544 0.0113855462017 83.061259713055
0.396000000000000 0.0114431061459 83.026348687555 0.9999295084425 -6.999296903142 0.9999295084425 -6.999296903142 0.0114430566772 83.025912033013
0.398000000000000 0.0115006118374 82.990995524645 0.9999288228840 -7.034644320819 0.9999288228840 -7.034644320819 0.0115005626671 82.990564413562
0.400000000000000 0.0115581130149 82.955642434663 0.9999281340659 -7.069991689348 0.9999281340659 -7.069991689348 0.0115580641492 82.955216854881
0.402000000000000 0.0116156096566 82.920289418281 0.9999274419891 -7.105339008504 0.9999274419891 -7.105339008504 0.0116155611016 82.919869357158
0.404000000000000 0.0116731017404 82.884936476146 0.9999267466547 -7.140686278062 0.9999267466547 -7.140686278062 0.0116730535022 82.884521920563
0.406000000000000 0.0117305892445 82.849583608889 0.9999260480639 -7.176033497795 0.9999260480639 -7.176033497795 0.0117305413291 82.849174545274
0.408000000000000 0.0117880721468 82.814230817142 0.9999253462176 -7.211380667479 0.9999253462176 -7.211380667479 0.0117880245603 82.813827231465
0.410000000000000 0.0118455504255 82.778878101509 0.9999246411171 -7.246727786887 0.9999246411171 -7.246727786887 0.0118455031738 82.778479979306
0.412000000000000 0.0119030240585 82.743525462590 0.9999239327634 -7.282074855796 0.9999239327634 -7.282074855796 0.0119029771475 82.743132788973
0.414000000000000 0.0119604930240 82.708172900963 0.9999232211576 -7.317421873978 0.9999232211576 -7.317421873978 0.0119604464595 82.707785660628
0.416000000000000 0.0120179573000 82.672820417203 0.9999225063008 -7.352768841210 0.9999225063008 -7.352768841210 0.0120179110878 82.672438594448
0.418000000000000 0.0120754168645 82.637468011863 0.9999217881941 -7.388115757266 0.9999217881941 -7.388115757266 0.0120753710103 82.637091590599
0.420000000000000 0.0121328716956 82.602115685498 0.9999210668387 -7.423462621921 0.9999210668387 -7.423462621921 0.0121328262052 82.601744649242
0.422000000000000 0.0121903217714 82.566763438630 0.9999203422357 -7.458809434950 0.9999203422357 -7.458809434950 0.0121902766504 82.566397770546
0.424000000000000 0.0122477670699 82.531411271795 0.9999196143861 -7.494156196128 0.9999196143861 -7.494156196128 0.0122477223238 82.531050954672
0.426000000000000 0.0123052075692 82.496059185501 0.9999188832912 -7.529502905230 0.9999188832912 -7.529502905230 0.0123051632036 82.495704201783
0.428000000000000 0.0123626432473 82.460707180248 0.9999181489520 -7.564849562032 0.9999181489520 -7.564849562032 0.0123625992677 82.460357512040
0.430000000000000 0.0124200740824 82.425355256522 0.9999174113697 -7.600196166308 0.9999174113697 -7.600196166308 0.0124200304942 82.425010885609
0.432000000000000 0.0124775000524 82.390003414815 0.9999166705455 -7.635542717833 0.9999166705455 -7.635542717833 0.0124774568610 82.389664322643
0.434000000000000 0.0125349211355 82.354651655582 0.9999159264805 -7.670889216384 0.9999159264805 -7.670889216384 0.0125348783462 82.354317823302
0.436000000000000 0.0125923373097 82.319299979300 0.9999151791758 -7.706235661736 0.9999151791758 -7.706235661736 0.0125922949278 82.318971387742
0.438000000000000 0.0126497485531 82.283948386409 0.9999144286326 -7.741582053664 0.9999144286326 -7.741582053664 0.0126497065838 82.283625016125
0.440000000000000 0.0127071548438 82.248596877357 0.9999136748521 -7.776928391943 0.9999136748521 -7.776928391943 0.0127071132922 82.248278708604
0.442000000000000 0.0127645561598 82.213245452569 0.9999129178354 -7.812274676349 0.9999129178354 -7.812274676349 0.0127645150311 82.212932465331
0.444000000000000 0.0128219524792 82.177894112479 0.9999121575837 -7.847620906659 0.9999121575837 -7.847620906659 0.0128219117784 82.177586286464
0.446000000000000 0.0128793437800 82.142542857498 0.9999113940983 -7.882967082647 0.9999113940983 -7.882967082647 0.0128793035123 82.142240172152
0.448000000000000 0.0129367300405 82.107191688031 0.9999106273802 -7.918313204090 0.9999106273802 -7.918313204090 0.0129366902106 82.106894122552
0.450000000000000 0.0129941112385 82.071840604480 0.9999098574307 -7.953659270763 0.9999098574307 -7.953659270763 0.0129940718515 82.071548137815
0.452000000000000 0.0130514873523 82.036489607234 0.9999090842509 -7.989005282442 0.9999090842509 -7.989005282442 0.0130514484129 82.036202218088
0.454000000000000 0.0131088583599 82.001138696675 0.9999083078420 -8.024351238904 0.9999083078420 -8.024351238904 0.0131088198730 82.000856363528
0.456000000000000 0.0131662242394 81.965787873178 0.9999075282054 -8.059697139925 0.9999075282054 -8.059697139925 0.0131661862096 81.965510574284
0.458000000000000 0.0132235849688 81.930437137114 0.9999067453420 -8.095042985280 0.9999067453420 -8.095042985280 0.0132235474010 81.930164850499
0.460000000000000 0.0132809405263 81.895086488844 0.9999059592533 -8.130388774745 0.9999059592533 -8.130388774745 0.0132809034250 81.894819192328
0.462000000000000 0.0133382908899 81.859735928716 0.9999051699403 -8.165734508098 0.9999051699403 -8.165734508098 0.0133382542597 81.859473599914
0.464000000000000 0.0133956360377 81.824385457082 0.9999043774044 -8.201080185115 0.9999043774044 -8.201080185115 0.0133955998832 81.824128073413
0.466000000000000 0.0134529759478 81.789035074281 0.9999035816466 -8.236425805571 0.9999035816466 -8.236425805571 0.0134529402735 81.788782612962
0.468000000000000 0.0135103105983 81.753684780645 0.9999027826683 -8.271771369244 0.9999027826683 -8.271771369244 0.0135102754086 81.753437218714
0.470000000000000 0.0135676399674 81.718334576496 0.9999019804708 -8.307116875910 0.9999019804708 -8.307116875910 0.0135676052666 81.718091890813
0.472000000000000 0.0136249640330 81.682984462166 0.9999011750551 -8.342462325345 0.9999011750551 -8.342462325345 0.0136249298255 81.682746629403
0.474000000000000 0.0136822827732 81.647634437957 0.9999003664226 -8.377807717327 0.9999003664226 -8.377807717327 0.0136822490633 81.647401434634
0.476000000000000 0.0137395961663 81.612284504188 0.9998995545746 -8.413153051632 0.9998995545746 -8.413153051632 0.0137395629582 81.612056306646
0.478000000000000 0.0137969041902 81.576934661157 0.9998987395122 -8.448498328037 0.9998987395122 -8.448498328037 0.0137968714881 81.576711245585
0.480000000000000 0.0138542068232 81.541584909160 0.9998979212367 -8.483843546319 0.9998979212367 -8.483843546319 0.0138541746310 81.541366251597
0.482000000000000 0.0139115040432 81.506235248487 0.9998970997495 -8.519188706254 0.9998970997495 -8.519188706254 0.0139114723652 81.506021324821
0.484000000000000 0.0139687958283 81.470885679427 0.9998962750517 -8.554533807621 0.9998962750517 -8.554533807621 0.0139687646685 81.470676465404
0.486000000000000 0.0140260821568 81.435536202259 0.9998954471446 -8.589878850196 0.9998954471446 -8.589878850196 0.0140260515190 81.435331673488
0.488000000000000 0.0140833630066 81.400186817259 0.9998946160295 -8.625223833756 0.9998946160295 -8.625223833756 0.0140833328949 81.399986949217
0.490000000000000 0.0141406383560 81.364837524696 0.9998937817078 -8.660568758079 0.9998937817078 -8.660568758079 0.0141406087740 81.364642292729
0.492000000000000 0.0141979081829 81.329488324839 0.9998929441806 -8.695913622942 0.9998929441806 -8.695913622942 0.0141978791346 81.329297704173
0.494000000000000 0.0142551724656 81.294139217948 0.9998921034493 -8.731258428122 0.9998921034493 -8.731258428122 0.0142551439547 81.293953183683
0.496000000000000 0.0143124311821 81.258790204269 0.9998912595151 -8.766603173398 0.9998912595151 -8.766603173398 0.0143124032122 81.258608731407
0.498000000000000 0.0143696843105 81.223441284067 0.9998904123794 -8.801947858546 0.9998904123794 -8.801947858546 0.0143696568854 81.223264347482
0.500000000000000 0.0144269318290 81.188092457583 0.9998895620435 -8.837292483344 0.9998895620435 -8.837292483344 0.0144269049522 81.187920032052
0.502000000000000 0.0144841737156 81.152743725057 0.9998887085086 -8.872637047570 0.9998887085086 -8.872637047570 0.0144841473907 81.152575785254
0.504000000000000 0.0145414099486 81.117395086729 0.9998878517761 -8.907981551001 0.9998878517761 -8.907981551001 0.0145413841789 81.117231607236